/*--------------------------------*- C++ -*----------------------------------*\
  =========                 |
  \\      /  F ield         | OpenFOAM: The Open Source CFD Toolbox
   \\    /   O peration     | Website:  https://openfoam.org
    \\  /    A nd           | Version:  6
     \\/     M anipulation  |
\*---------------------------------------------------------------------------*/
FoamFile
{
    version     2.0;
    format      ascii;
    class       volScalarField;
    location    "200";
    object      epsilon;
}
// * * * * * * * * * * * * * * * * * * * * * * * * * * * * * * * * * * * * * //

dimensions      [0 2 -3 0 0 0 0];

internalField   nonuniform List<scalar> 
12225
(
174.878
63.4708
46.906
39.4666
34.6953
31.1944
28.4602
26.2449
24.4058
22.8529
21.5256
20.3818
19.3917
18.5359
17.8039
17.2104
16.7731
17.0446
53.9974
29.743
21.6441
18.0736
15.862
14.2807
13.0674
12.0972
11.3
10.6321
10.0646
9.57693
9.15425
8.78522
8.4582
8.16755
7.8626
7.59872
30.0326
21.7415
16.4531
13.75
12.0333
10.801
9.85446
9.09704
8.47405
7.9515
7.50658
7.12317
6.78919
6.49502
6.23076
5.98854
5.73766
5.50342
21.695
18.1471
14.3987
12.1426
10.6344
9.53176
8.67761
7.99059
7.42348
6.9464
6.53913
6.18719
5.87961
5.60757
5.36251
5.13683
4.9138
4.70281
17.9349
16.0981
13.3183
11.3786
10.0015
8.96751
8.15578
7.49768
6.95164
6.49058
6.09584
5.75387
5.45435
5.18892
4.94996
4.73072
4.52168
4.32568
16.0223
14.8136
12.6659
10.9774
9.70321
8.71639
7.92832
7.28277
6.74355
6.28616
5.89325
5.552
5.25256
4.98694
4.74822
4.5305
4.32781
4.14044
15.0041
13.9741
12.244
10.7602
9.57603
8.62851
7.85645
7.21654
6.67791
6.21859
5.82251
5.47755
5.17419
4.90489
4.6633
4.44422
4.24337
4.05984
14.4741
13.4056
11.9632
10.645
9.54139
8.62924
7.87163
7.23543
6.69513
6.23149
5.82988
5.47897
5.16982
4.89521
4.6492
4.42707
4.22527
4.04221
14.1917
13.0514
11.7785
10.5888
9.55628
8.67948
7.93685
7.3047
6.76266
6.2943
5.88654
5.52896
5.2132
4.93242
4.68109
4.45483
4.25034
4.06553
14.0499
12.8371
11.6603
10.5661
9.59547
8.75305
8.02685
7.40045
6.85803
6.38588
5.97258
5.6087
5.2865
4.99961
4.74281
4.51198
4.30388
4.11606
13.9866
12.7131
11.587
10.5607
9.64183
8.83204
8.12369
7.50528
6.96465
6.49058
6.07323
5.70423
5.37652
5.08418
4.82233
4.58702
4.37502
4.18365
13.9667
12.6515
11.5463
10.5615
9.6805
8.89797
8.20668
7.59758
7.06089
6.58723
6.16811
5.79606
5.46465
5.16841
4.90275
4.66385
4.4485
4.2539
13.9643
12.6182
11.5197
10.5618
9.71031
8.95175
8.27728
7.67875
7.14783
6.67654
6.25751
5.88409
5.55046
5.25155
4.98305
4.7413
4.52313
4.32572
13.9728
12.6028
11.5001
10.5581
9.72933
8.99319
8.33688
7.75132
7.22893
6.76269
6.34618
5.9735
5.63938
5.33921
5.06899
4.82521
4.6048
4.40499
13.9871
12.6011
11.4858
10.5473
9.73241
9.01323
8.37354
7.80233
7.29119
6.83317
6.42223
6.05308
5.72098
5.42173
5.1516
4.90731
4.68591
4.48475
14.0026
12.6083
11.4763
10.5302
9.71837
9.00898
8.38175
7.82311
7.32349
6.8755
6.4728
6.11014
5.78297
5.48732
5.21964
4.97687
4.75627
4.55534
14.0155
12.6193
11.4722
10.5131
9.6954
8.98722
8.36623
7.81656
7.32673
6.88812
6.49401
6.13886
5.81805
5.52763
5.26415
5.02463
4.80647
4.60731
14.0231
12.6284
11.4732
10.5045
9.68029
8.96957
8.34968
7.80375
7.31919
6.88649
6.49828
6.14864
5.83272
5.54647
5.28647
5.04978
4.83384
4.63641
14.0221
12.6286
11.4765
10.5113
9.68978
8.98078
8.3617
7.81587
7.33098
6.89769
6.5087
6.1582
5.84141
5.55432
5.29351
5.05606
4.83941
4.64137
14.0083
12.6147
11.4784
10.5299
9.71895
9.01321
8.39136
7.83873
7.34484
6.90185
6.50347
6.1444
5.82004
5.52642
5.2601
5.01806
4.79766
4.59663
13.9893
12.6054
11.4906
10.5539
9.74167
9.0255
8.38874
7.82046
7.31192
6.85609
6.44685
6.0789
5.74754
5.44858
5.17833
4.93354
4.71137
4.50936
13.9699
12.6134
11.5158
10.5704
9.73414
8.99023
8.32759
7.73725
7.21138
6.74284
6.32492
5.95152
5.6172
5.3172
5.04734
4.80393
4.58385
4.3844
13.9738
12.6737
11.5705
10.5795
9.69103
8.90185
8.20529
7.59213
7.05263
6.5771
6.15683
5.78425
5.45283
5.15704
4.89216
4.65418
4.43971
4.24589
14.0611
12.8583
11.6929
10.6024
9.63072
8.78511
8.05464
7.4236
6.87668
6.40041
5.98351
5.61673
5.29245
5.00443
4.74751
4.51741
4.31056
4.12401
14.3703
13.2947
11.9469
10.6834
9.6019
8.69401
7.93229
7.28831
6.73882
6.26579
5.85527
5.49644
5.18075
4.90142
4.65299
4.43099
4.23176
4.05229
15.1981
14.2
12.4276
10.9
9.68262
8.7109
7.91978
7.26394
6.71191
6.24119
5.83543
5.48249
5.17308
4.90003
4.65758
4.44121
4.24723
4.0726
17.3202
15.8404
13.2979
11.4059
10.0249
8.97565
8.14609
7.47012
6.90695
6.42994
6.02063
5.66573
5.35531
5.0818
4.8393
4.6231
4.42933
4.25495
22.705
18.9711
15.0014
12.6017
11
9.83158
8.92597
8.19599
7.59182
7.08219
6.64606
6.26857
5.93878
5.64843
5.39109
5.16175
4.95612
4.77133
39.1259
26.025
19.2641
15.995
13.9523
12.4921
11.3678
10.4639
9.71665
9.08673
8.54778
8.0813
7.67372
7.31479
6.99656
6.71296
6.45809
6.23048
119.754
53.3331
39.136
32.765
28.7536
25.8228
23.5225
21.6459
20.0765
18.7407
17.5885
16.5844
15.7017
14.9204
14.2245
13.6019
13.0392
12.5412
0.00387043
0.00640136
0.0129724
0.0190302
0.0241486
0.0290351
0.0338854
0.0387845
0.0439118
0.0494031
0.0553476
0.0618334
0.0689626
0.076855
0.0856297
0.0953964
0.106232
0.118185
0.131272
0.145506
0.16085
0.177258
0.194666
0.213034
0.232314
0.252272
0.272827
0.293902
0.315406
0.33728
0.359438
0.381833
0.404385
0.427054
0.449761
0.472469
0.495098
0.51761
0.539922
0.561999
0.58376
0.605186
0.626225
0.646928
0.667389
0.687522
0.707001
0.725933
0.74424
0.761918
0.778909
0.7952
0.810735
0.825502
0.839455
0.852583
0.864849
0.876244
0.886742
0.896338
0.905019
0.912783
0.919634
0.92558
0.930651
0.934889
0.938269
0.940492
0.941946
0.942545
0.942305
0.941228
0.939353
0.936687
0.933279
0.929137
0.924316
0.918826
0.912723
0.906013
0.898759
0.890968
0.882697
0.873945
0.864762
0.855207
0.845355
0.835154
0.824635
0.813828
0.802766
0.791487
0.780027
0.768416
0.75668
0.744843
0.73293
0.720962
0.708961
0.696946
0.684937
0.672951
0.661006
0.649116
0.637298
0.625562
0.613922
0.602386
0.590968
0.579672
0.568509
0.557485
0.546608
0.535882
0.525314
0.514916
0.504679
0.494597
0.484712
0.475027
0.465533
0.456221
0.447093
0.438146
0.429382
0.4208
0.412402
0.404187
0.396155
0.388303
0.38063
0.373136
0.365821
0.358686
0.351729
0.344956
0.338371
0.331969
0.325748
0.319699
0.313818
0.308097
0.302548
0.297169
0.291939
0.286855
0.281919
0.277135
0.272501
0.268013
0.263669
0.259462
0.255389
0.251445
0.247627
0.243928
0.240346
0.236878
0.233523
0.230279
0.22714
0.224103
0.221163
0.218313
0.215551
0.21287
0.210269
0.20774
0.205277
0.202871
0.200514
0.198186
0.195899
0.193563
0.191315
0.188795
0.18645
0.183907
0.181044
0.165674
0.0241074
0.0143323
0.0145968
0.0169312
0.0202145
0.0241116
0.0285485
0.0334666
0.0388187
0.0445611
0.0506571
0.0570852
0.0638363
0.0709074
0.078291
0.0859748
0.0939402
0.102173
0.110673
0.119342
0.12812
0.136978
0.145893
0.154852
0.16384
0.172839
0.181849
0.190873
0.199912
0.20897
0.218046
0.227139
0.236245
0.245359
0.254469
0.263567
0.272637
0.281668
0.290641
0.299546
0.308369
0.317109
0.325774
0.334398
0.343077
0.351811
0.36035
0.368667
0.376734
0.384531
0.392034
0.399224
0.406081
0.412589
0.418728
0.424487
0.429849
0.434805
0.439344
0.44346
0.447146
0.4504
0.453222
0.455612
0.457576
0.459114
0.460215
0.460867
0.461048
0.460849
0.460268
0.4593
0.457956
0.456249
0.454194
0.451804
0.449098
0.44609
0.442799
0.439238
0.435429
0.431385
0.427126
0.422667
0.41803
0.413235
0.408301
0.40323
0.398035
0.392729
0.387324
0.381837
0.376284
0.370678
0.365033
0.35936
0.353669
0.347973
0.342279
0.336599
0.330939
0.325309
0.319714
0.314163
0.308662
0.303215
0.297829
0.292508
0.287256
0.282077
0.276974
0.27195
0.267007
0.262148
0.257374
0.252689
0.248105
0.243613
0.239217
0.23492
0.23072
0.226614
0.222603
0.218684
0.214859
0.211125
0.207483
0.203932
0.200473
0.197105
0.193827
0.190639
0.187538
0.184525
0.181597
0.178755
0.176001
0.173334
0.170752
0.168254
0.165838
0.1635
0.161247
0.159081
0.156992
0.154974
0.153026
0.151147
0.149336
0.147592
0.145914
0.144299
0.142747
0.141255
0.139821
0.138443
0.13712
0.135849
0.13463
0.133462
0.132343
0.131272
0.130248
0.129268
0.128331
0.127435
0.126581
0.125768
0.124994
0.12426
0.123567
0.122914
0.122312
0.121756
0.121264
0.120931
0.12046
0.120655
0.121163
0.122414
0.058417
0.0293905
0.0256945
0.0266964
0.0293295
0.0329649
0.037369
0.0423816
0.0478474
0.0536172
0.059567
0.0656106
0.0716995
0.0778123
0.0839426
0.0900895
0.0962505
0.102418
0.108523
0.114671
0.120865
0.127114
0.133424
0.139799
0.146243
0.15276
0.159352
0.166022
0.172768
0.17959
0.186484
0.193444
0.200465
0.207537
0.214652
0.221798
0.228964
0.236139
0.243309
0.250464
0.257593
0.264688
0.271742
0.278758
0.285723
0.292601
0.299336
0.305901
0.312271
0.318425
0.324343
0.330007
0.335398
0.340502
0.345301
0.349784
0.353937
0.357751
0.361217
0.364328
0.367079
0.369467
0.371491
0.373151
0.37445
0.375389
0.375942
0.376123
0.375957
0.375464
0.374647
0.373512
0.372071
0.370335
0.368316
0.366028
0.363485
0.360701
0.35769
0.354468
0.351048
0.347446
0.343677
0.339755
0.335695
0.331513
0.327223
0.322837
0.318365
0.313818
0.309205
0.304538
0.299829
0.295088
0.290326
0.285551
0.280773
0.276
0.271238
0.266497
0.261782
0.257098
0.252451
0.247845
0.243287
0.238778
0.234325
0.229929
0.225594
0.221322
0.217116
0.212978
0.208908
0.20491
0.200984
0.197132
0.193356
0.189657
0.186036
0.182493
0.179029
0.175642
0.172333
0.1691
0.165944
0.162862
0.159856
0.156924
0.154069
0.151291
0.148588
0.145958
0.143398
0.140909
0.138489
0.136138
0.133855
0.131642
0.129496
0.127417
0.125405
0.123458
0.121573
0.119752
0.117993
0.116292
0.114648
0.11306
0.111528
0.110051
0.108628
0.107257
0.105936
0.104666
0.103443
0.102268
0.101138
0.100052
0.0990087
0.0980082
0.097049
0.0961301
0.0952506
0.0944093
0.0936053
0.0928381
0.0921073
0.0914127
0.090755
0.0901345
0.0895537
0.0890144
0.0885233
0.0880912
0.0877125
0.0875115
0.0871997
0.0873783
0.0878959
0.0898947
0.101629
0.0468264
0.0383292
0.0377503
0.0396851
0.0428884
0.0469166
0.0515273
0.0565279
0.0617511
0.0670629
0.0723732
0.077635
0.0828363
0.0879864
0.0931052
0.0982149
0.103336
0.108516
0.113729
0.119026
0.124417
0.129908
0.135506
0.141214
0.147033
0.152965
0.159009
0.165161
0.17142
0.17778
0.184235
0.190777
0.197397
0.204085
0.210831
0.217622
0.224446
0.231289
0.23814
0.244983
0.251808
0.258602
0.265344
0.272007
0.278561
0.284976
0.291226
0.297288
0.303139
0.308759
0.314129
0.31923
0.324045
0.32856
0.33276
0.336633
0.340169
0.343358
0.346196
0.348675
0.350794
0.352552
0.353949
0.354988
0.355657
0.355944
0.355892
0.355493
0.354764
0.353715
0.352358
0.350704
0.348766
0.346557
0.344091
0.341382
0.338445
0.335296
0.331948
0.328417
0.324718
0.320865
0.316874
0.31276
0.308536
0.304216
0.299814
0.29534
0.290805
0.286219
0.281594
0.276939
0.272265
0.267581
0.262895
0.258216
0.25355
0.248905
0.244289
0.239707
0.235163
0.230661
0.226206
0.221802
0.217453
0.213161
0.20893
0.204762
0.200659
0.196623
0.192656
0.188758
0.184931
0.181175
0.177492
0.173883
0.170349
0.166889
0.163504
0.160194
0.156958
0.153796
0.150707
0.147691
0.144747
0.141874
0.139072
0.136341
0.133682
0.131091
0.128569
0.126115
0.123726
0.121402
0.119143
0.116947
0.114815
0.112746
0.110742
0.108799
0.106916
0.105091
0.103323
0.101612
0.0999543
0.0983501
0.0967989
0.0952995
0.0938507
0.0924514
0.0911004
0.0897962
0.0885382
0.0873251
0.0861557
0.0850288
0.0839433
0.0828982
0.0818926
0.0809259
0.0799969
0.0791048
0.0782487
0.0774281
0.0766423
0.0758912
0.0751748
0.0744934
0.0738478
0.07324
0.0726726
0.0721504
0.0716845
0.0712714
0.0709999
0.070676
0.0706976
0.070993
0.0724284
0.146344
0.0643186
0.0504925
0.0481003
0.0489647
0.0513748
0.0546771
0.0585595
0.0628163
0.067292
0.0718701
0.0764748
0.0810672
0.085639
0.0902012
0.0947759
0.0993883
0.104064
0.108825
0.113698
0.118679
0.123787
0.12903
0.134415
0.139944
0.145618
0.151437
0.1574
0.163504
0.169743
0.176113
0.182606
0.189212
0.195923
0.202727
0.20961
0.216558
0.223556
0.230588
0.237636
0.244684
0.251715
0.258706
0.26563
0.272461
0.279171
0.285732
0.29212
0.298309
0.304275
0.309997
0.315452
0.320623
0.325489
0.330036
0.334248
0.338113
0.34162
0.34476
0.347527
0.349916
0.351924
0.353551
0.354798
0.355668
0.356139
0.356241
0.355983
0.355375
0.354427
0.35315
0.351557
0.349659
0.347472
0.345011
0.342289
0.339322
0.336127
0.33272
0.329115
0.32533
0.321379
0.31728
0.313047
0.308695
0.30424
0.299696
0.295074
0.290389
0.28565
0.28087
0.276058
0.271225
0.266382
0.261537
0.256698
0.251875
0.247073
0.2423
0.237561
0.232858
0.228199
0.22359
0.219036
0.21454
0.210106
0.205737
0.201434
0.197201
0.193039
0.188949
0.184932
0.18099
0.177123
0.173333
0.169618
0.165981
0.162422
0.158939
0.155533
0.152203
0.148949
0.145771
0.142668
0.139639
0.136683
0.1338
0.130988
0.128248
0.125579
0.122979
0.120447
0.117983
0.115584
0.113251
0.110982
0.108776
0.106633
0.104551
0.102531
0.10057
0.0986688
0.0968242
0.0950357
0.0933018
0.0916212
0.0899937
0.0884191
0.0868956
0.0854214
0.0839955
0.0826165
0.0812833
0.0799956
0.078752
0.0775514
0.0763924
0.0752739
0.0741952
0.0731553
0.0721535
0.0711887
0.0702599
0.0693666
0.068508
0.0676838
0.0668936
0.0661372
0.0654152
0.0647281
0.0640776
0.063466
0.0628974
0.0623805
0.061917
0.0615575
0.0612476
0.0610759
0.0612094
0.0620746
0.18664
0.0801479
0.0611268
0.0568084
0.0565113
0.0580112
0.0605032
0.0636117
0.0671228
0.0708942
0.0748273
0.0788589
0.082955
0.0871053
0.0913152
0.0955995
0.0999769
0.104467
0.109086
0.113851
0.118775
0.123863
0.129118
0.134545
0.140148
0.145929
0.151888
0.158025
0.164337
0.170818
0.177464
0.184265
0.191211
0.198292
0.205494
0.2128
0.220193
0.227654
0.235161
0.242692
0.250223
0.257726
0.265175
0.272545
0.279808
0.286933
0.293893
0.300659
0.307205
0.313504
0.319532
0.325266
0.330685
0.335769
0.340501
0.344865
0.348848
0.35244
0.355631
0.358415
0.360788
0.362748
0.364296
0.365434
0.366156
0.366463
0.366381
0.365916
0.365077
0.363878
0.362331
0.36045
0.358251
0.35575
0.352963
0.349906
0.346597
0.343054
0.339293
0.335333
0.331191
0.326884
0.322429
0.317842
0.313141
0.30834
0.303454
0.298497
0.293481
0.28842
0.283325
0.278206
0.273076
0.267943
0.262817
0.257706
0.25262
0.247565
0.242547
0.237574
0.232651
0.227781
0.22297
0.218222
0.21354
0.208927
0.204386
0.199919
0.195529
0.191216
0.186983
0.182829
0.178756
0.174764
0.170854
0.167025
0.163278
0.159611
0.156025
0.15252
0.149095
0.145751
0.142487
0.139301
0.136193
0.133161
0.130206
0.127325
0.124519
0.121786
0.119124
0.116533
0.114011
0.111557
0.10917
0.106849
0.104593
0.102401
0.100271
0.0982025
0.0961949
0.0942464
0.0923557
0.0905215
0.0887426
0.0870175
0.0853454
0.0837256
0.0821567
0.0806375
0.0791667
0.0777429
0.0763651
0.0750341
0.0737477
0.0725044
0.0713029
0.070142
0.0690212
0.0679396
0.0668963
0.06589
0.0649199
0.0639853
0.0630857
0.0622206
0.0613894
0.0605921
0.0598288
0.0591001
0.0584073
0.0577524
0.0571388
0.0565733
0.05606
0.0556281
0.0552719
0.0549874
0.0549882
0.0554429
0.219244
0.0933675
0.0697359
0.0635025
0.0621597
0.0627963
0.0645449
0.0669725
0.0698535
0.0730521
0.0764809
0.0800843
0.0838312
0.0877084
0.0917143
0.0958555
0.100144
0.104593
0.109212
0.114014
0.119011
0.124209
0.129616
0.135238
0.141079
0.14714
0.153422
0.159922
0.166636
0.173558
0.18068
0.187989
0.195475
0.20312
0.210908
0.218819
0.226832
0.234925
0.243071
0.251243
0.259413
0.267551
0.275625
0.283604
0.291456
0.299149
0.306651
0.31393
0.320958
0.327705
0.334145
0.340252
0.346005
0.351381
0.356364
0.360936
0.365084
0.368798
0.372069
0.374892
0.377263
0.379182
0.38065
0.381672
0.382239
0.382372
0.382081
0.381379
0.380277
0.37879
0.376933
0.374724
0.372178
0.369313
0.36615
0.362706
0.359
0.355052
0.350881
0.346507
0.341948
0.337223
0.33235
0.327348
0.322233
0.317022
0.31173
0.306372
0.300962
0.295512
0.290037
0.284546
0.279051
0.273563
0.268092
0.262645
0.257231
0.251859
0.246533
0.241262
0.23605
0.230901
0.225822
0.220814
0.215882
0.211028
0.206256
0.201567
0.196962
0.192444
0.188012
0.183669
0.179414
0.175248
0.17117
0.167181
0.163281
0.159469
0.155744
0.152105
0.148553
0.145086
0.141703
0.138403
0.135186
0.13205
0.128994
0.126016
0.123116
0.120291
0.117541
0.114865
0.112261
0.109729
0.107266
0.104872
0.102546
0.100285
0.0980894
0.0959571
0.0938869
0.0918775
0.0899277
0.0880361
0.0862013
0.0844218
0.0826964
0.081024
0.0794034
0.0778334
0.0763127
0.0748401
0.0734141
0.0720346
0.0707001
0.0694093
0.068161
0.0669541
0.0657882
0.0646628
0.0635762
0.0625273
0.0615149
0.0605389
0.0595985
0.058693
0.0578218
0.0569847
0.0561819
0.0554137
0.0546811
0.0539858
0.0533307
0.052721
0.0521615
0.0516701
0.0512544
0.0509194
0.0507495
0.0509614
0.243106
0.103644
0.0762101
0.0682936
0.0660091
0.065917
0.0670482
0.0689335
0.0713304
0.0741035
0.0771702
0.0804744
0.0839927
0.0877127
0.0916322
0.0957384
0.100037
0.104538
0.109252
0.114198
0.119383
0.124815
0.1305
0.136445
0.142652
0.149124
0.155859
0.162855
0.170107
0.177605
0.185341
0.1933
0.201466
0.20982
0.218341
0.227006
0.235787
0.244656
0.253582
0.262533
0.271475
0.280372
0.289188
0.297887
0.306431
0.314785
0.322913
0.330781
0.338355
0.345606
0.352503
0.35902
0.365133
0.37082
0.376063
0.380845
0.385154
0.38898
0.392314
0.395153
0.397496
0.399343
0.400698
0.401564
0.401943
0.401857
0.401314
0.400328
0.398916
0.397094
0.394879
0.392291
0.389349
0.386074
0.382486
0.378607
0.374457
0.370058
0.365431
0.360597
0.355577
0.350389
0.345055
0.339593
0.334022
0.328358
0.322618
0.316818
0.310972
0.305095
0.299199
0.293296
0.287399
0.281518
0.275662
0.269841
0.264063
0.258336
0.252667
0.247062
0.241526
0.236065
0.230682
0.225382
0.220167
0.215041
0.210005
0.205062
0.200213
0.195459
0.190801
0.186239
0.181775
0.177407
0.173136
0.168961
0.164882
0.160898
0.157008
0.153212
0.149508
0.145895
0.142372
0.138938
0.135592
0.132332
0.129157
0.126065
0.123056
0.120127
0.117277
0.114505
0.111809
0.109187
0.106639
0.104162
0.101756
0.0994172
0.097146
0.0949408
0.0928001
0.0907226
0.0887069
0.0867515
0.0848549
0.0830156
0.0812322
0.0795034
0.0778281
0.0762047
0.074632
0.0731086
0.0716333
0.0702051
0.0688228
0.0674852
0.066191
0.0649391
0.0637287
0.062559
0.0614288
0.060337
0.0592825
0.0582657
0.0572854
0.0563406
0.0554307
0.0545555
0.0537151
0.0529096
0.0521396
0.0514066
0.0507131
0.0500629
0.0494608
0.0489187
0.0484462
0.0480531
0.0477607
0.0478001
0.258543
0.111079
0.080724
0.0714158
0.0682844
0.0676387
0.0682923
0.0697756
0.0718231
0.0743054
0.0771476
0.0802989
0.0837145
0.0873718
0.091262
0.0953952
0.0997789
0.104421
0.109327
0.114504
0.119971
0.125737
0.131806
0.138186
0.144878
0.151883
0.159201
0.166827
0.174754
0.182971
0.191464
0.200217
0.209209
0.218417
0.227813
0.237367
0.247048
0.25682
0.266645
0.276486
0.286301
0.29605
0.30569
0.315179
0.324476
0.33354
0.342332
0.350815
0.358952
0.36671
0.37406
0.380972
0.387423
0.393391
0.398857
0.403807
0.408228
0.412113
0.415455
0.418252
0.420505
0.422217
0.423395
0.424043
0.424176
0.423805
0.422945
0.421614
0.419831
0.417614
0.414986
0.411965
0.408576
0.404841
0.400781
0.396422
0.391785
0.386894
0.381772
0.37644
0.370922
0.365239
0.35941
0.353457
0.347399
0.341253
0.335038
0.32877
0.322463
0.316133
0.309792
0.303455
0.297132
0.290835
0.284574
0.278358
0.272195
0.266094
0.260062
0.254104
0.248226
0.242433
0.236729
0.231118
0.225603
0.220186
0.214871
0.209657
0.204547
0.199542
0.194642
0.189847
0.185158
0.180575
0.176096
0.171721
0.16745
0.163281
0.159214
0.155247
0.15138
0.14761
0.143936
0.140357
0.136872
0.133478
0.130175
0.12696
0.123833
0.12079
0.117831
0.114954
0.112158
0.10944
0.106798
0.104232
0.10174
0.0993199
0.09697
0.0946887
0.0924747
0.0903264
0.0882422
0.0862204
0.0842594
0.0823578
0.0805143
0.0787274
0.0769958
0.0753179
0.0736924
0.0721178
0.0705929
0.0691163
0.067687
0.0663035
0.0649646
0.0636692
0.0624161
0.0612045
0.0600332
0.0589012
0.0578073
0.0567513
0.0557322
0.0547492
0.0538017
0.0528899
0.0520137
0.0511727
0.0503674
0.0495991
0.0488697
0.0481822
0.0475407
0.0469539
0.0464301
0.04598
0.0456113
0.0454933
0.26668
0.116018
0.0835646
0.0731534
0.0693365
0.0682502
0.0685516
0.0697683
0.0716293
0.0739662
0.0766847
0.0797319
0.0830949
0.086764
0.0907326
0.095
0.099572
0.104449
0.109627
0.115137
0.120996
0.127211
0.133788
0.140731
0.148044
0.155726
0.163775
0.172183
0.180941
0.190033
0.199443
0.209146
0.219117
0.229325
0.239737
0.250314
0.261017
0.271804
0.282629
0.293446
0.304207
0.314866
0.325373
0.335682
0.345746
0.355521
0.364964
0.374036
0.382698
0.390916
0.398659
0.405901
0.412615
0.418783
0.424388
0.429415
0.433856
0.437705
0.44096
0.44362
0.445689
0.447174
0.448084
0.44843
0.448227
0.447489
0.446231
0.44448
0.442254
0.439577
0.436471
0.432961
0.429069
0.424823
0.420245
0.415362
0.410198
0.404779
0.399127
0.393268
0.387224
0.381018
0.374672
0.368206
0.361641
0.354996
0.348289
0.341536
0.334755
0.327958
0.321162
0.314378
0.30762
0.300897
0.294221
0.287601
0.281045
0.274562
0.268158
0.26184
0.255612
0.24948
0.243449
0.23752
0.231698
0.225984
0.220382
0.214891
0.209514
0.204251
0.199103
0.194068
0.189149
0.184343
0.17965
0.17507
0.170601
0.166242
0.161992
0.157849
0.153812
0.14988
0.14605
0.142322
0.138692
0.135161
0.131725
0.128383
0.125133
0.121973
0.118902
0.115917
0.113016
0.110199
0.107462
0.104804
0.102224
0.0997185
0.0972871
0.0949276
0.0926382
0.0904173
0.0882633
0.0861745
0.0841491
0.0821854
0.080282
0.0784372
0.0766495
0.0749173
0.0732392
0.0716138
0.0700398
0.0685158
0.0670403
0.0656121
0.0642299
0.0628925
0.0615985
0.0603469
0.0591367
0.0579667
0.0568359
0.0557435
0.0546887
0.0536706
0.0526887
0.0517426
0.0508322
0.0499573
0.0491182
0.0483165
0.0475535
0.0468312
0.0461533
0.045526
0.0449564
0.0444538
0.0440215
0.0437795
0.26826
0.118706
0.0850013
0.0737974
0.0694751
0.0681002
0.0682077
0.0692648
0.0709727
0.0732015
0.0758749
0.0789456
0.0823862
0.0861839
0.0903355
0.0948383
0.0996855
0.104883
0.110465
0.116449
0.122846
0.129665
0.13691
0.144587
0.152698
0.16124
0.170206
0.179587
0.189366
0.199523
0.210031
0.220862
0.231979
0.243344
0.254913
0.266641
0.278476
0.290368
0.302264
0.314109
0.325848
0.337428
0.348794
0.359896
0.370682
0.381106
0.391124
0.400694
0.409778
0.418343
0.42636
0.433801
0.440645
0.446876
0.452478
0.457443
0.461764
0.465439
0.46847
0.470861
0.472618
0.473754
0.474279
0.474211
0.473569
0.472357
0.47061
0.468352
0.465605
0.462393
0.458743
0.45468
0.450231
0.445423
0.440282
0.434835
0.429108
0.423128
0.41692
0.410509
0.403918
0.397172
0.390293
0.383302
0.37622
0.369067
0.361861
0.354619
0.347359
0.340094
0.332839
0.325609
0.318414
0.311266
0.304176
0.297153
0.290206
0.283342
0.276568
0.269891
0.263315
0.256846
0.250488
0.244243
0.238115
0.232106
0.226218
0.220452
0.214808
0.209288
0.203891
0.198618
0.193468
0.18844
0.183533
0.178747
0.174079
0.16953
0.165096
0.160777
0.156571
0.152476
0.14849
0.144611
0.140837
0.137167
0.133598
0.130128
0.126755
0.123477
0.120293
0.117199
0.114195
0.111277
0.108444
0.105694
0.103025
0.100435
0.0979225
0.0954847
0.0931201
0.090827
0.0886035
0.0864478
0.0843581
0.0823326
0.0803697
0.0784677
0.0766249
0.0748398
0.0731106
0.071436
0.0698143
0.0682441
0.066724
0.0652526
0.0638286
0.0624507
0.0611176
0.0598281
0.058581
0.0573751
0.0562095
0.055083
0.0539949
0.0529444
0.0519306
0.0509531
0.0500117
0.049106
0.0482363
0.0474035
0.0466087
0.0458537
0.0451416
0.0444775
0.0438666
0.0433165
0.0428295
0.0424894
0.265393
0.119647
0.0853704
0.0736923
0.0690765
0.0674599
0.067391
0.0683422
0.0700287
0.0722941
0.0750552
0.0782662
0.0819057
0.085956
0.0904023
0.0952362
0.100493
0.106198
0.112372
0.119029
0.126173
0.133813
0.141956
0.150605
0.159758
0.169407
0.17954
0.190139
0.201178
0.212629
0.224453
0.236611
0.249054
0.261733
0.274593
0.287575
0.30062
0.313668
0.326654
0.339519
0.352201
0.364641
0.37678
0.388566
0.399946
0.410873
0.421303
0.431196
0.440518
0.449237
0.457327
0.464766
0.471537
0.477628
0.483028
0.487734
0.491744
0.49506
0.49769
0.499642
0.500928
0.501563
0.50156
0.500954
0.499731
0.497938
0.495598
0.492738
0.489383
0.485559
0.481295
0.476618
0.471556
0.466139
0.460393
0.454347
0.448027
0.441462
0.434676
0.427697
0.420547
0.413252
0.405833
0.398314
0.390714
0.383054
0.375352
0.367626
0.359892
0.352165
0.344461
0.336792
0.329169
0.321606
0.314112
0.306696
0.299367
0.292132
0.284999
0.277973
0.271059
0.264262
0.257586
0.251034
0.244609
0.238312
0.232146
0.22611
0.220207
0.214436
0.208798
0.203291
0.197916
0.192671
0.187555
0.182568
0.177706
0.17297
0.168357
0.163865
0.159492
0.155237
0.151097
0.147071
0.143155
0.139348
0.135648
0.132053
0.128559
0.125165
0.12187
0.118669
0.115562
0.112546
0.109619
0.106779
0.104023
0.10135
0.0987566
0.096242
0.0938038
0.0914399
0.0891484
0.0869274
0.0847749
0.0826892
0.0806684
0.0787107
0.0768144
0.0749777
0.073199
0.0714766
0.069809
0.0681946
0.0666318
0.0651193
0.0636555
0.0622391
0.0608687
0.0595431
0.0582611
0.0570215
0.055823
0.0546647
0.0535456
0.0524648
0.0514215
0.0504151
0.0494451
0.0485113
0.0476137
0.0467527
0.0459293
0.0451449
0.0444018
0.0437039
0.0430553
0.0424625
0.0419274
0.0415084
0.260053
0.119507
0.0851399
0.0731466
0.0682504
0.0664929
0.0663933
0.0673821
0.0691674
0.0715949
0.0745875
0.0780838
0.0820463
0.0864629
0.0913614
0.0967683
0.102702
0.109184
0.116236
0.123858
0.132059
0.140847
0.150225
0.160188
0.170727
0.181824
0.193456
0.205589
0.218187
0.231203
0.244585
0.258278
0.272218
0.286342
0.300582
0.314867
0.329128
0.343295
0.357299
0.371073
0.384553
0.397677
0.410387
0.42263
0.434358
0.445526
0.456094
0.466028
0.475298
0.483881
0.491755
0.498906
0.505323
0.511
0.515933
0.520126
0.523582
0.52631
0.528321
0.52963
0.530255
0.530208
0.529532
0.528204
0.526279
0.523781
0.520738
0.517176
0.513124
0.508609
0.503662
0.498312
0.492588
0.486518
0.480132
0.473458
0.466523
0.459355
0.451981
0.444425
0.436714
0.428869
0.420915
0.412874
0.404765
0.396609
0.388424
0.380227
0.372036
0.363864
0.355727
0.347636
0.339605
0.331645
0.323764
0.315974
0.308281
0.300693
0.293218
0.28586
0.278624
0.271516
0.264538
0.257694
0.250985
0.244415
0.237983
0.231692
0.225542
0.219532
0.213662
0.207933
0.202342
0.19689
0.191574
0.186393
0.181346
0.17643
0.171644
0.166986
0.162454
0.158045
0.153757
0.149588
0.145536
0.141597
0.137771
0.134054
0.130444
0.126938
0.123535
0.120231
0.117025
0.113914
0.110896
0.107968
0.105128
0.102375
0.0997045
0.0971158
0.0946065
0.0921744
0.0898174
0.0875336
0.0853208
0.0831772
0.0811008
0.0790896
0.077142
0.075256
0.0734299
0.0716619
0.0699504
0.0682938
0.0666904
0.0651388
0.0636373
0.0621846
0.0607792
0.0594197
0.0581049
0.0568335
0.0556043
0.0544162
0.0532682
0.0521593
0.0510886
0.0500554
0.0490591
0.0480995
0.0471762
0.0462896
0.0454403
0.0446293
0.0438584
0.0431305
0.0424488
0.0418183
0.0412406
0.0407569
0.251595
0.118472
0.0844203
0.0722631
0.0673052
0.0655622
0.0655707
0.0667547
0.068809
0.0715635
0.0749121
0.0788373
0.0833464
0.0884515
0.0941667
0.100515
0.107521
0.115206
0.123569
0.13262
0.142362
0.152794
0.163905
0.175678
0.188084
0.201087
0.214643
0.228697
0.243191
0.258058
0.273225
0.288618
0.304159
0.319767
0.335363
0.350869
0.366207
0.381302
0.396084
0.410487
0.424447
0.437908
0.450818
0.46313
0.474803
0.4858
0.496093
0.505654
0.514466
0.522511
0.529779
0.536265
0.541966
0.546884
0.551023
0.554393
0.557005
0.558874
0.560014
0.560448
0.5602
0.559289
0.557718
0.555534
0.552764
0.549434
0.545573
0.54121
0.536374
0.531095
0.525402
0.519326
0.512895
0.506139
0.499086
0.491765
0.484202
0.476425
0.46846
0.460332
0.452066
0.443683
0.435208
0.426661
0.418062
0.409431
0.400785
0.392142
0.383518
0.374926
0.366382
0.357897
0.349483
0.341151
0.332911
0.324772
0.316741
0.308825
0.301032
0.293365
0.285831
0.278434
0.271175
0.264059
0.257088
0.250263
0.243585
0.237056
0.230674
0.224441
0.218356
0.212418
0.206627
0.20098
0.195476
0.190114
0.184892
0.179808
0.17486
0.170045
0.165362
0.160808
0.15638
0.152076
0.147895
0.143832
0.139886
0.136053
0.132333
0.128721
0.125216
0.121814
0.118514
0.115313
0.112208
0.109197
0.106277
0.103447
0.100703
0.0980444
0.0954675
0.0929706
0.0905515
0.088208
0.0859381
0.0837396
0.0816104
0.0795488
0.0775526
0.0756199
0.073749
0.0719381
0.0701853
0.0684889
0.0668473
0.0652588
0.063722
0.0622351
0.0607969
0.0594057
0.0580604
0.0567594
0.0555017
0.0542859
0.0531111
0.0519761
0.05088
0.0498221
0.0488017
0.0478183
0.0468715
0.0459615
0.0450885
0.0442534
0.0434575
0.0427028
0.0419919
0.0413286
0.0407141
0.0401779
0.242177
0.116395
0.083232
0.0713058
0.0665263
0.0650231
0.0653596
0.0669142
0.0693912
0.0726815
0.0767429
0.0815484
0.0871017
0.0934184
0.100518
0.108423
0.11716
0.126725
0.137124
0.148353
0.160393
0.173218
0.186788
0.201055
0.215958
0.231429
0.247389
0.263757
0.280444
0.297358
0.314408
0.331501
0.348546
0.365455
0.382143
0.39853
0.414542
0.430108
0.445166
0.459659
0.473535
0.486751
0.499266
0.51105
0.522073
0.532315
0.541758
0.550391
0.558206
0.565201
0.571375
0.576733
0.581282
0.585033
0.587998
0.590192
0.591635
0.592349
0.592335
0.591673
0.590298
0.588294
0.585677
0.582476
0.578718
0.574431
0.569645
0.564389
0.558691
0.552582
0.546091
0.539246
0.532077
0.524611
0.516876
0.5089
0.500708
0.492327
0.483781
0.475094
0.46629
0.457391
0.448419
0.439393
0.430333
0.421257
0.412183
0.403126
0.394102
0.385125
0.376208
0.367363
0.3586
0.349931
0.341364
0.332909
0.324571
0.316359
0.308278
0.300334
0.29253
0.28487
0.277358
0.269997
0.262787
0.255732
0.24883
0.242084
0.235493
0.229057
0.222775
0.216647
0.210671
0.204846
0.199171
0.193642
0.18826
0.18302
0.177922
0.172963
0.168141
0.163452
0.158895
0.154467
0.150165
0.145986
0.141929
0.137989
0.134166
0.130455
0.126855
0.123362
0.119974
0.116688
0.113502
0.110414
0.10742
0.104518
0.101705
0.0989806
0.0963406
0.0937831
0.0913059
0.0889067
0.0865833
0.0843335
0.0821552
0.0800463
0.0780048
0.0760287
0.0741161
0.072265
0.0704737
0.0687404
0.0670632
0.0654406
0.0638709
0.0623524
0.0608836
0.0594632
0.0580895
0.0567613
0.0554771
0.0542359
0.0530363
0.0518774
0.050758
0.0496774
0.0486348
0.0476296
0.0466613
0.0457299
0.0448354
0.0439783
0.0431597
0.0423811
0.0416443
0.0409522
0.0403059
0.0397266
0.232464
0.113907
0.081977
0.0705988
0.0663316
0.0653227
0.06623
0.0685373
0.0720035
0.0765136
0.0820311
0.0885472
0.0960715
0.104621
0.11421
0.124847
0.136524
0.149234
0.162966
0.177658
0.193236
0.209613
0.226692
0.24437
0.262535
0.281072
0.299864
0.318796
0.337755
0.356632
0.375326