/*--------------------------------*- C++ -*----------------------------------*\
  =========                 |
  \\      /  F ield         | OpenFOAM: The Open Source CFD Toolbox
   \\    /   O peration     | Website:  https://openfoam.org
    \\  /    A nd           | Version:  6
     \\/     M anipulation  |
\*---------------------------------------------------------------------------*/
FoamFile
{
    version     2.0;
    format      ascii;
    class       volScalarField;
    location    "200";
    object      k;
}
// * * * * * * * * * * * * * * * * * * * * * * * * * * * * * * * * * * * * * //

dimensions      [0 2 -2 0 0 0 0];

internalField   nonuniform List<scalar> 
12225
(
0.222225
0.0806549
0.0596053
0.0501517
0.0440886
0.0396398
0.0361652
0.03335
0.031013
0.0290396
0.0273528
0.0258991
0.0246409
0.0235533
0.0226229
0.0218686
0.0213124
0.0216569
0.295418
0.178853
0.144743
0.12734
0.115758
0.107069
0.100149
0.0944399
0.0896204
0.0854861
0.0818986
0.0787599
0.0759984
0.0735624
0.0714087
0.0695246
0.0677866
0.0665826
0.322574
0.228711
0.189542
0.167822
0.153055
0.141871
0.132894
0.125436
0.119099
0.11363
0.108855
0.10465
0.100924
0.0976054
0.0946336
0.0919668
0.0895099
0.0873809
0.336235
0.260454
0.220365
0.196216
0.179349
0.166431
0.155995
0.147282
0.139848
0.133409
0.127767
0.122781
0.118345
0.114373
0.110795
0.107554
0.104578
0.101937
0.344579
0.283002
0.244289
0.218998
0.20073
0.186526
0.174955
0.16524
0.156917
0.149682
0.143323
0.137688
0.132659
0.128141
0.124056
0.120341
0.116943
0.113905
0.350277
0.299797
0.263683
0.238222
0.219125
0.203993
0.191532
0.180997
0.171927
0.164011
0.157033
0.150831
0.145281
0.140282
0.135752
0.131627
0.127863
0.124482
0.354394
0.312575
0.279612
0.254711
0.235286
0.219551
0.206423
0.195231
0.185536
0.177037
0.169518
0.162815
0.156801
0.151372
0.146445
0.141957
0.137867
0.134178
0.357426
0.322335
0.292661
0.268839
0.249517
0.233488
0.219912
0.208221
0.198022
0.189035
0.181052
0.173911
0.167486
0.161675
0.156394
0.151583
0.1472
0.143231
0.359645
0.329723
0.303198
0.280786
0.261925
0.245888
0.232081
0.220055
0.209479
0.200103
0.191735
0.184222
0.177444
0.171299
0.16571
0.160613
0.155968
0.151746
0.361227
0.335195
0.311502
0.290658
0.272527
0.256737
0.242908
0.230715
0.219894
0.210236
0.201571
0.193761
0.186691
0.180268
0.174416
0.169074
0.164198
0.159752
0.362311
0.339099
0.317807
0.298542
0.281317
0.265981
0.252322
0.240125
0.229198
0.219373
0.210507
0.202479
0.195187
0.188545
0.182481
0.176938
0.171868
0.167229
0.362959
0.341514
0.321974
0.304047
0.287722
0.272939
0.259584
0.247524
0.236622
0.226751
0.217793
0.209646
0.20222
0.195437
0.189232
0.183547
0.178337
0.173555
0.363382
0.343122
0.324924
0.308163
0.292719
0.278549
0.26559
0.253766
0.242986
0.233157
0.224187
0.215991
0.208493
0.201624
0.195323
0.189539
0.184223
0.179331
0.363668
0.34417
0.326996
0.311289
0.296754
0.283296
0.270863
0.259407
0.248873
0.239196
0.230309
0.222147
0.214646
0.207749
0.201402
0.195557
0.190169
0.185195
0.363835
0.344678
0.32809
0.313156
0.299422
0.286695
0.274878
0.263912
0.25375
0.244348
0.23566
0.227636
0.220225
0.213381
0.207058
0.201212
0.195805
0.190795
0.363917
0.344782
0.328351
0.313803
0.300604
0.288473
0.277241
0.266806
0.257105
0.248087
0.239711
0.231933
0.224714
0.218014
0.211795
0.206022
0.200661
0.195675
0.363951
0.344686
0.328125
0.313619
0.30065
0.288872
0.278061
0.268068
0.258794
0.250169
0.242138
0.234658
0.227689
0.221195
0.215143
0.209502
0.204241
0.199332
0.363968
0.3446
0.327876
0.313272
0.300318
0.288664
0.278055
0.268311
0.259301
0.250934
0.243146
0.235883
0.229105
0.222774
0.216858
0.211328
0.206156
0.201316
0.363978
0.344657
0.327988
0.313425
0.300489
0.288831
0.278202
0.268427
0.259381
0.250978
0.243153
0.235856
0.229045
0.222684
0.216739
0.211182
0.205984
0.201123
0.363947
0.34479
0.328337
0.313853
0.300799
0.288854
0.277835
0.267618
0.258121
0.249286
0.241063
0.233409
0.226285
0.219653
0.213477
0.207724
0.202363
0.197365
0.363856
0.344701
0.328112
0.313217
0.299549
0.286902
0.275164
0.26427
0.254169
0.244813
0.236155
0.228143
0.220729
0.213867
0.207513
0.201625
0.196164
0.191097
0.363548
0.34372
0.326126
0.309995
0.295088
0.281332
0.268667
0.257031
0.24636
0.236581
0.227619
0.219402
0.21186
0.204927
0.198546
0.192664
0.187234
0.182217
0.362783
0.340919
0.321031
0.302806
0.286241
0.271278
0.257795
0.245644
0.234676
0.224753
0.215756
0.207577
0.200125
0.193318
0.187085
0.181366
0.176107
0.171265
0.36122
0.335272
0.311718
0.290885
0.272715
0.256859
0.242949
0.230668
0.219756
0.210005
0.201248
0.193349
0.186195
0.179694
0.173767
0.168348
0.16338
0.158819
0.358469
0.325767
0.297492
0.274122
0.254821
0.238624
0.224795
0.212816
0.202318
0.193033
0.184759
0.177342
0.170657
0.164605
0.159106
0.15409
0.149504
0.145303
0.354103
0.311262
0.277797
0.252567
0.23295
0.217095
0.203876
0.192604
0.182833
0.174258
0.166663
0.159885
0.153798
0.148304
0.143323
0.13879
0.134651
0.130867
0.347419
0.290003
0.251843
0.226047
0.207139
0.192339
0.180226
0.170016
0.161235
0.153574
0.146818
0.140809
0.135428
0.130582
0.126197
0.122213
0.11858
0.115265
0.336654
0.258651
0.217811
0.193313
0.176259
0.163227
0.152695
0.143888
0.136359
0.12982
0.124074
0.118978
0.114427
0.110337
0.106643
0.103292
0.10024
0.0974659
0.316171
0.209264
0.169976
0.149173
0.135296
0.124873
0.116532
0.10961
0.103731
0.0986531
0.0942139
0.0902953
0.0868094
0.0836883
0.0808786
0.0783375
0.0760265
0.0739432
0.264394
0.117749
0.0864049
0.072339
0.0634828
0.0570121
0.0519336
0.0477905
0.0443257
0.0413766
0.0388329
0.036616
0.0346674
0.0329425
0.0314061
0.0300315
0.0287893
0.0276899
1.33612e-05
0.000100788
0.000204162
0.000299398
0.000379717
0.000456032
0.000531716
0.000608013
0.000687708
0.000772918
0.000865014
0.000965331
0.00107543
0.00119714
0.0013323
0.0014826
0.00164921
0.00183288
0.00203381
0.0022522
0.00248743
0.00273877
0.00300518
0.00328594
0.00358027
0.00388472
0.00419782
0.00451838
0.00484494
0.00517654
0.00551187
0.00585015
0.00619012
0.00653115
0.00687202
0.00721214
0.00755027
0.00788583
0.00821756
0.0085449
0.00886664
0.00918243
0.00949148
0.00979445
0.0100926
0.0103858
0.0106679
0.0109411
0.011204
0.0114566
0.0116982
0.0119285
0.0121467
0.0123527
0.0125459
0.012726
0.0128927
0.0130457
0.0131848
0.01331
0.013421
0.013518
0.013601
0.0136701
0.0137259
0.013769
0.0137997
0.0138141
0.0138146
0.0138015
0.0137778
0.0137415
0.0136935
0.0136339
0.0135634
0.0134822
0.0133912
0.0132906
0.0131812
0.0130631
0.0129374
0.012804
0.012664
0.0125174
0.0123648
0.0122071
0.0120454
0.0118792
0.0117089
0.0115348
0.0113575
0.0111775
0.0109954
0.0108115
0.0106264
0.0104404
0.0102537
0.0100668
0.00987995
0.00969341
0.00950749
0.00932241
0.00913845
0.00895578
0.00877466
0.00859523
0.00841768
0.00824211
0.00806871
0.00789754
0.00772874
0.00756238
0.00739857
0.00723735
0.0070788
0.0069231
0.00677008
0.0066197
0.00647237
0.00632827
0.00618722
0.00604911
0.00591392
0.00578161
0.00565219
0.00552562
0.00540193
0.00528108
0.00516307
0.00504783
0.00493535
0.00482559
0.00471857
0.00461426
0.00451262
0.00441374
0.00431763
0.00422423
0.00413347
0.00404526
0.00395951
0.00387612
0.0037952
0.00371675
0.00364048
0.00356632
0.00349434
0.0034245
0.0033568
0.00329118
0.00322757
0.00316592
0.00310616
0.00304821
0.00299202
0.00293752
0.00288465
0.00283338
0.00278368
0.0027355
0.00268879
0.00264348
0.0025995
0.00255679
0.00251527
0.0024749
0.00243562
0.00239735
0.00236001
0.0023235
0.00228771
0.00225242
0.00221774
0.00218269
0.00214879
0.002112
0.00207738
0.00204067
0.00200064
0.00182333
8.32196e-05
0.000648451
0.00121521
0.00165486
0.00201219
0.00232013
0.0026056
0.00288726
0.00317434
0.00347021
0.00377555
0.00409122
0.00441876
0.00476004
0.00511682
0.00549046
0.00588165
0.00629053
0.00671675
0.00715947
0.00761758
0.00808996
0.00857527
0.00907231
0.00957968
0.0100961
0.0106202
0.0111509
0.0116872
0.012228
0.0127721
0.0133186
0.0138665
0.0144146
0.014962
0.0155075
0.0160501
0.0165886
0.0171217
0.0176483
0.018167
0.0186762
0.0191743
0.0196593
0.0201286
0.0205814
0.0210206
0.0214461
0.0218572
0.0222531
0.0226329
0.0229959
0.0233413
0.0236683
0.0239765
0.0242651
0.0245337
0.0247818
0.0250091
0.0252154
0.0254004
0.0255642
0.0257066
0.0258279
0.0259283
0.0260082
0.0260679
0.0261039
0.026118
0.0261142
0.0260918
0.0260509
0.025992
0.0259157
0.0258226
0.0257136
0.0255892
0.0254503
0.0252976
0.0251319
0.0249539
0.0247644
0.0245642
0.024354
0.0241345
0.0239068
0.0236717
0.0234294
0.0231805
0.0229256
0.0226652
0.0224002
0.0221313
0.021859
0.0215838
0.0213065
0.0210274
0.020747
0.0204659
0.0201843
0.0199028
0.0196216
0.0193411
0.0190618
0.0187837
0.0185073
0.0182328
0.0179604
0.0176904
0.0174228
0.0171579
0.0168958
0.0166367
0.0163807
0.0161279
0.0158784
0.0156322
0.0153894
0.0151507
0.0149162
0.0146855
0.0144586
0.0142356
0.0140164
0.0138011
0.0135896
0.0133821
0.0131784
0.0129787
0.0127828
0.0125908
0.0124027
0.0122185
0.0120381
0.0118616
0.0116892
0.011521
0.0113567
0.0111964
0.0110399
0.0108871
0.0107381
0.0105924
0.0104498
0.0103106
0.0101748
0.0100425
0.00991361
0.00978821
0.00966623
0.00954757
0.00943214
0.00931985
0.00921059
0.00910429
0.00900083
0.00890016
0.00880226
0.00870708
0.00861455
0.00852456
0.00843702
0.00835182
0.00826885
0.00818801
0.00810922
0.00803239
0.00795739
0.00788408
0.00781227
0.00774179
0.00767231
0.00760392
0.00753535
0.00746843
0.00739841
0.00733082
0.00726557
0.007196
0.00693047
0.00020158
0.00140904
0.0023487
0.00301891
0.00356196
0.00404276
0.004494
0.00493327
0.00536916
0.00580517
0.00624276
0.00668328
0.00712873
0.00758161
0.0080445
0.00851972
0.00900897
0.00951333
0.010033
0.0105678
0.0111169
0.0116798
0.0122554
0.0128427
0.0134403
0.0140472
0.0146621
0.0152839
0.0159112
0.0165431
0.0171784
0.0178161
0.0184549
0.0190938
0.0197317
0.0203675
0.021
0.021628
0.0222504
0.0228658
0.023473
0.0240707
0.0246576
0.0252325
0.0257942
0.0263418
0.0268745
0.0273913
0.0278911
0.0283728
0.0288354
0.0292776
0.0296987
0.0300976
0.0304735
0.0308257
0.0311536
0.0314565
0.0317341
0.031986
0.0322119
0.0324117
0.0325854
0.0327331
0.0328549
0.0329512
0.0330223
0.0330664
0.033084
0.0330787
0.0330503
0.0329991
0.032926
0.0328315
0.0327165
0.0325818
0.0324283
0.0322569
0.0320685
0.0318641
0.0316446
0.0314108
0.0311637
0.0309043
0.0306334
0.0303519
0.0300609
0.0297611
0.0294533
0.0291381
0.0288163
0.0284887
0.028156
0.027819
0.0274784
0.0271347
0.0267886
0.0264407
0.0260915
0.0257415
0.0253912
0.025041
0.0246913
0.0243426
0.0239951
0.0236492
0.0233053
0.0229635
0.0226242
0.0222875
0.0219537
0.021623
0.0212955
0.0209715
0.020651
0.0203342
0.0200211
0.0197121
0.0194071
0.0191065
0.0188101
0.0185182
0.0182306
0.0179475
0.0176688
0.0173947
0.0171252
0.0168602
0.0165998
0.016344
0.0160929
0.0158463
0.0156044
0.0153672
0.0151346
0.0149072
0.0146847
0.0144669
0.0142539
0.0140455
0.0138417
0.0136423
0.0134474
0.0132567
0.0130703
0.0128881
0.01271
0.0125364
0.0123671
0.0122021
0.0120413
0.0118845
0.0117317
0.0115827
0.0114376
0.0112962
0.0111584
0.0110243
0.0108938
0.0107668
0.0106431
0.0105228
0.0104056
0.0102914
0.0101803
0.0100721
0.00996677
0.00986415
0.00976416
0.00966665
0.00957154
0.00947869
0.00938824
0.00929962
0.00921416
0.0091299
0.00905074
0.00897929
0.00892505
0.0087495
0.000350788
0.00218374
0.00342928
0.00426908
0.00493298
0.00551078
0.00604521
0.00655886
0.00706347
0.00756486
0.00806604
0.00856926
0.0090769
0.0095916
0.010116
0.0106524
0.0112025
0.0117674
0.0123474
0.0129427
0.0135528
0.0141768
0.0148139
0.0154629
0.0161228
0.0167925
0.0174707
0.0181565
0.0188486
0.0195461
0.0202478
0.0209527
0.0216598
0.0223678
0.0230757
0.0237824
0.0244865
0.0251869
0.0258822
0.026571
0.0272522
0.0279241
0.0285855
0.029235
0.0298711
0.0304924
0.0310975
0.0316851
0.0322536
0.0328018
0.0333283
0.0338319
0.0343114
0.0347656
0.0351937
0.0355947
0.0359678
0.0363125
0.036628
0.0369141
0.0371705
0.0373969
0.0375933
0.0377598
0.0378966
0.038004
0.0380822
0.0381303
0.0381487
0.0381403
0.0381052
0.038044
0.0379576
0.0378468
0.0377125
0.0375557
0.0373773
0.0371786
0.0369603
0.0367237
0.0364698
0.0361997
0.0359143
0.0356149
0.0353023
0.0349778
0.0346422
0.0342965
0.0339417
0.0335786
0.0332081
0.032831
0.0324481
0.0320603
0.0316684
0.0312729
0.0308747
0.0304744
0.0300725
0.0296697
0.0292664
0.0288632
0.0284605
0.0280588
0.0276584
0.0272597
0.0268631
0.0264688
0.0260772
0.0256884
0.0253028
0.0249206
0.0245419
0.024167
0.0237959
0.023429
0.0230662
0.0227078
0.0223539
0.0220046
0.02166
0.0213203
0.0209854
0.0206554
0.0203304
0.0200105
0.0196956
0.0193859
0.0190813
0.0187819
0.0184877
0.0181987
0.0179149
0.0176363
0.017363
0.0170951
0.0168326
0.0165754
0.0163235
0.0160769
0.0158354
0.0155991
0.0153678
0.0151415
0.0149201
0.0147035
0.0144918
0.0142853
0.0140837
0.0138869
0.0136949
0.0135076
0.0133248
0.0131464
0.0129724
0.0128027
0.0126374
0.0124763
0.0123195
0.0121667
0.0120178
0.0118728
0.0117315
0.0115939
0.0114599
0.0113294
0.0112024
0.0110787
0.0109582
0.0108409
0.0107266
0.0106155
0.0105075
0.0104025
0.0103015
0.010204
0.0101123
0.0100295
0.00997104
0.00982954
0.000505391
0.00290081
0.0043942
0.00536847
0.00612255
0.00676514
0.00734848
0.00790111
0.00843927
0.00897227
0.00950562
0.010043
0.0105872
0.0111409
0.0117063
0.0122851
0.0128788
0.0134881
0.0141133
0.0147543
0.0154106
0.0160815
0.0167663
0.0174639
0.0181734
0.0188937
0.019624
0.0203632
0.0211102
0.0218641
0.0226238
0.0233882
0.0241562
0.0249266
0.0256982
0.0264697
0.0272398
0.0280069
0.0287698
0.0295268
0.0302763
0.0310167
0.0317465
0.0324638
0.0331669
0.0338542
0.0345239
0.0351744
0.0358039
0.036411
0.036994
0.0375515
0.0380822
0.0385848
0.0390583
0.0395016
0.0399139
0.0402943
0.0406424
0.0409576
0.0412396
0.0414882
0.0417035
0.0418854
0.0420341
0.04215
0.0422334
0.0422837
0.0423018
0.0422896
0.0422477
0.0421768
0.0420779
0.041952
0.0418
0.0416232
0.0414225
0.0411992
0.0409545
0.0406894
0.0404052
0.0401032
0.0397844
0.0394501
0.0391015
0.0387396
0.0383657
0.0379806
0.0375856
0.0371814
0.0367692
0.0363498
0.0359242
0.0354931
0.0350575
0.0346182
0.0341758
0.033731
0.0332846
0.0328372
0.0323893
0.0319414
0.0314941
0.0310478
0.030603
0.03016
0.0297193
0.0292811
0.0288458
0.0284136
0.0279848
0.0275597
0.0271385
0.0267213
0.0263084
0.0258999
0.025496
0.0250968
0.0247025
0.0243132
0.023929
0.02355
0.0231763
0.022808
0.0224451
0.0220877
0.0217358
0.0213895
0.0210488
0.0207139
0.0203846
0.020061
0.0197431
0.019431
0.0191246
0.018824
0.0185293
0.0182403
0.0179571
0.0176797
0.0174079
0.0171418
0.0168813
0.0166263
0.0163768
0.0161326
0.0158938
0.0156604
0.0154324
0.0152097
0.0149921
0.0147797
0.0145723
0.0143698
0.0141722
0.0139793
0.0137915
0.0136085
0.0134301
0.0132561
0.0130866
0.0129214
0.0127603
0.0126034
0.0124506
0.0123018
0.012157
0.0120159
0.0118786
0.0117448
0.0116147
0.0114883
0.0113656
0.0112468
0.0111324
0.011023
0.0109195
0.0108257
0.0107542
0.0106257
0.000644907
0.00350826
0.00519497
0.00627559
0.00710035
0.00779221
0.00841064
0.00898921
0.00954817
0.0101001
0.0106531
0.0112122
0.0117809
0.012362
0.0129572
0.0135681
0.0141954
0.0148396
0.0155009
0.0161791
0.0168736
0.017584
0.0183095
0.0190494
0.0198027
0.0205687
0.0213463
0.0221347
0.022933
0.02374
0.0245547
0.0253759
0.0262025
0.0270331
0.0278663
0.0287008
0.0295348
0.0303668
0.0311951
0.0320179
0.0328333
0.0336395
0.0344344
0.0352162
0.0359827
0.0367321
0.0374623
0.0381715
0.0388577
0.0395192
0.0401542
0.0407613
0.0413388
0.0418854
0.0423999
0.0428812
0.0433284
0.0437406
0.0441173
0.0444579
0.0447622
0.0450298
0.0452609
0.0454555
0.0456138
0.0457362
0.0458231
0.0458742
0.0458909
0.0458742
0.0458251
0.0457445
0.0456334
0.045493
0.0453244
0.0451287
0.0449073
0.0446614
0.0443923
0.0441014
0.0437898
0.0434589
0.0431101
0.0427445
0.0423636
0.0419684
0.0415602
0.0411402
0.0407094
0.040269
0.0398199
0.0393631
0.0388997
0.0384306
0.0379566
0.0374786
0.0369974
0.0365137
0.0360282
0.0355416
0.0350546
0.0345676
0.0340812
0.033596
0.0331124
0.0326307
0.0321515
0.031675
0.0312016
0.0307316
0.0302653
0.0298029
0.0293447
0.0288908
0.0284416
0.027997
0.0275574
0.0271229
0.0266936
0.0262696
0.0258512
0.0254383
0.0250311
0.0246296
0.024234
0.0238443
0.0234606
0.0230829
0.0227112
0.0223457
0.0219863
0.021633
0.0212859
0.020945
0.0206103
0.0202818
0.0199596
0.0196435
0.0193337
0.01903
0.0187325
0.0184411
0.0181557
0.0178763
0.0176029
0.0173352
0.0170734
0.0168173
0.016567
0.0163224
0.0160834
0.0158499
0.0156218
0.0153991
0.0151817
0.0149693
0.0147622
0.0145602
0.0143632
0.0141711
0.0139837
0.013801
0.0136228
0.0134492
0.0132803
0.0131158
0.0129556
0.0127995
0.0126475
0.0124995
0.0123557
0.012216
0.0120806
0.0119496
0.0118234
0.0117029
0.0115889
0.0114842
0.011398
0.0112751
0.000757924
0.00398633
0.00581689
0.00697941
0.00786047
0.00859339
0.00924206
0.00984347
0.0104207
0.0109889
0.011558
0.0121344
0.0127224
0.013325
0.013944
0.0145806
0.0152355
0.0159089
0.016601
0.0173115
0.0180399
0.0187859
0.0195488
0.020328
0.0211227
0.0219322
0.0227556
0.0235921
0.0244405
0.0253
0.0261692
0.027047
0.0279319
0.0288225
0.0297172
0.0306143
0.031512
0.0324083
0.0333013
0.0341889
0.035069
0.0359393
0.0367975
0.0376416
0.0384691
0.0392778
0.0400656
0.0408303
0.0415698
0.0422822
0.0429657
0.0436184
0.0442388
0.0448254
0.045377
0.0458924
0.0463705
0.0468107
0.0472123
0.0475747
0.0478977
0.0481811
0.048425
0.0486294
0.0487948
0.0489214
0.0490099
0.0490603
0.0490739
0.0490516
0.0489945
0.0489036
0.0487802
0.0486253
0.0484404
0.0482266
0.0479855
0.0477183
0.0474264
0.0471113
0.0467744
0.046417
0.0460406
0.0456466
0.0452362
0.0448108
0.0443717
0.0439201
0.0434572
0.042984
0.0425018
0.0420116
0.0415144
0.0410112
0.0405029
0.0399904
0.0394745
0.0389561
0.0384359
0.0379146
0.0373927
0.036871
0.03635
0.0358303
0.0353122
0.0347963
0.0342829
0.0337725
0.0332654
0.0327619
0.0322623
0.0317668
0.0312758
0.0307895
0.030308
0.0298316
0.0293604
0.0288946
0.0284343
0.0279797
0.0275309
0.0270881
0.0266513
0.0262206
0.0257962
0.025378
0.0249661
0.0245607
0.0241617
0.0237693
0.0233833
0.0230039
0.0226311
0.0222649
0.0219053
0.0215523
0.0212059
0.0208662
0.020533
0.0202064
0.0198864
0.0195728
0.0192657
0.0189649
0.0186705
0.0183824
0.0181004
0.0178246
0.017555
0.0172913
0.0170336
0.0167818
0.0165358
0.0162955
0.0160608
0.0158317
0.015608
0.0153897
0.0151767
0.0149689
0.0147662
0.0145685
0.0143756
0.0141876
0.0140044
0.0138259
0.013652
0.0134825
0.0133174
0.0131568
0.0130008
0.0128493
0.0127025
0.0125604
0.0124235
0.0122927
0.0121688
0.0120539
0.0119539
0.0118302
0.000840732
0.0043366
0.00626735
0.00749047
0.00841609
0.00918416
0.00986104
0.0104855
0.0110822
0.0116678
0.0122535
0.0128467
0.0134527
0.0140746
0.0147146
0.015374
0.0160534
0.0167531
0.0174733
0.0182137
0.0189742
0.0197543
0.0205536
0.0213715
0.0222074
0.0230605
0.0239301
0.0248152
0.0257148
0.0266276
0.0275524
0.0284878
0.0294321
0.0303837
0.0313406
0.0323009
0.0332625
0.0342231
0.0351806
0.0361323
0.037076
0.038009
0.0389289
0.0398331
0.0407191
0.0415844
0.0424266
0.0432434
0.0440325
0.0447919
0.0455195
0.0462136
0.0468725
0.0474946
0.0480786
0.0486235
0.0491281
0.0495917
0.0500138
0.0503938
0.0507315
0.0510269
0.05128
0.051491
0.0516603
0.0517884
0.051876
0.0519235
0.0519321
0.0519027
0.0518362
0.0517341
0.0515975
0.051428
0.0512267
0.0509953
0.050735
0.0504474
0.050134
0.0497963
0.0494357
0.0490537
0.0486519
0.0482317
0.0477944
0.0473415
0.0468743
0.0463941
0.0459021
0.0453995
0.0448876
0.0443673
0.0438397
0.043306
0.042767
0.0422237
0.041677
0.0411276
0.0405764
0.0400241
0.0394712
0.0389186
0.0383668
0.0378162
0.0372675
0.036721
0.0361773
0.0356366
0.0350995
0.0345661
0.0340368
0.033512
0.0329918
0.0324765
0.0319663
0.0314614
0.030962
0.0304683
0.0299804
0.0294985
0.0290228
0.0285532
0.02809
0.0276333
0.0271831
0.0267395
0.0263027
0.0258725
0.0254492
0.0250327
0.0246232
0.0242205
0.0238248
0.0234361
0.0230543
0.0226795
0.0223117
0.0219509
0.021597
0.02125
0.0209099
0.0205767
0.0202503
0.0199307
0.0196177
0.0193114
0.0190117
0.0187184
0.0184316
0.0181511
0.017877
0.017609
0.0173472
0.0170914
0.0168415
0.0165975
0.0163592
0.0161266
0.0158997
0.0156781
0.015462
0.0152511
0.0150454
0.0148448
0.0146492
0.0144586
0.0142727
0.0140917
0.0139153
0.0137435
0.0135766
0.0134144
0.0132571
0.0131048
0.0129581
0.0128176
0.0126843
0.0125597
0.012447
0.012319
0.000894365
0.00457208
0.00656628
0.00783167
0.00879133
0.00958906
0.0102924
0.0109404
0.0115583
0.0121634
0.0127676
0.0133793
0.014004
0.0146456
0.0153064
0.0159879
0.0166912
0.0174167
0.0181647
0.0189351
0.0197279
0.0205428
0.0213794
0.0222374
0.0231161
0.0240147
0.0249325
0.0258685
0.0268213
0.0277898
0.0287724
0.0297674
0.0307729
0.031787
0.0328075
0.033832
0.0348581
0.0358832
0.0369047
0.0379197
0.0389256
0.0399196
0.0408987
0.0418602
0.0428013
0.0437194
0.0446118
0.0454762
0.04631
0.0471112
0.0478777
0.0486076
0.0492993
0.0499511
0.0505619
0.0511305
0.0516559
0.0521375
0.0525747
0.0529671
0.0533146
0.0536172
0.0538751
0.0540886
0.0542581
0.0543843
0.0544679
0.0545098
0.0545109
0.0544724
0.0543947
0.0542799
0.0541293
0.0539444
0.0537266
0.0534775
0.0531985
0.0528913
0.0525573
0.0521982
0.0518155
0.0514107
0.0509854
0.0505411
0.0500793
0.0496014
0.0491087
0.0486027
0.0480846
0.0475556
0.047017
0.0464699
0.0459153
0.0453544
0.0447882
0.0442176
0.0436434
0.0430666
0.0424879
0.0419081
0.0413279
0.0407479
0.0401687
0.0395909
0.039015
0.0384415
0.0378708
0.0373034
0.0367396
0.0361797
0.0356241
0.0350731
0.0345269
0.0339858
0.03345
0.0329198
0.0323953
0.0318768
0.0313643
0.030858
0.0303581
0.0298647
0.029378
0.028898
0.0284248
0.0279585
0.0274993
0.0270471
0.026602
0.0261641
0.0257334
0.0253099
0.0248938
0.0244849
0.0240833
0.023689
0.0233021
0.0229224
0.02255
0.0221849
0.021827
0.0214763
0.0211327
0.0207962
0.0204667
0.0201442
0.0198285
0.0195197
0.0192176
0.0189222
0.0186334
0.0183511
0.0180752
0.0178056
0.0175422
0.017285
0.0170338
0.0167886
0.0165492
0.0163155
0.0160875
0.015865
0.0156479
0.0154361
0.0152296
0.0150283
0.014832
0.0146407
0.0144543
0.0142729
0.0140963
0.0139247
0.0137583
0.0135971
0.0134415
0.0132923
0.0131501
0.0130162
0.0128921
0.0127582
0.000922681
0.00471139
0.00673821
0.00803009
0.00901453
0.00983678
0.0105643
0.0112357
0.0118762
0.0125031
0.0131285
0.013761
0.0144066
0.0150696
0.0157528
0.0164582
0.0171871
0.0179402
0.0187179
0.0195206
0.0203482
0.0212007
0.0220779
0.0229793
0.0239043
0.0248522
0.025822
0.0268125
0.0278224
0.0288501
0.0298938
0.0309514
0.0320208
0.0330996
0.0341851
0.0352748
0.0363657
0.037455
0.0385394
0.0396161
0.0406818
0.0417335
0.0427681
0.0437825
0.0447738
0.0457391
0.0466759
0.0475814
0.0484532
0.0492893
0.0500874
0.0508458
0.0515628
0.052237
0.0528671
0.0534522
0.0539913
0.0544839
0.0549295
0.055328
0.0556792
0.0559834
0.0562407
0.0564517
0.0566169
0.0567371
0.0568132
0.056846
0.0568368
0.0567865
0.0566955
0.0565664
0.0564006
0.0561996
0.0559648
0.0556979
0.0554005
0.0550741
0.0547204
0.054341
0.0539375
0.0535115
0.0530647
0.0525984
0.0521143
0.0516138
0.0510983
0.0505692
0.0500278
0.0494755
0.0489133
0.0483425
0.0477642
0.0471794
0.0465893
0.0459947
0.0453966
0.0447958
0.0441931
0.0435893
0.0429852
0.0423812
0.0417782
0.0411765
0.0405769
0.0399797
0.0393854
0.0387944
0.0382072
0.037624
0.0370452
0.0364711
0.0359021
0.0353382
0.0347799
0.0342273
0.0336805
0.0331399
0.0326056
0.0320777
0.0315564
0.0310418
0.0305341
0.0300334
0.0295398
0.0290533
0.0285741
0.0281022
0.0276377
0.0271807
0.0267311
0.0262891
0.0258547
0.0254278
0.0250086
0.0245969
0.0241929
0.0237964
0.0234075
0.0230262
0.0226523
0.022286
0.021927
0.0215755
0.0212312
0.0208943
0.0205644
0.0202417
0.019926
0.0196173
0.0193154
0.0190203
0.0187319
0.01845
0.0181746
0.0179057
0.017643
0.0173865
0.017136
0.0168916
0.016653
0.0164201
0.0161929
0.0159713
0.0157551
0.0155443
0.0153387
0.0151384
0.0149431
0.014753
0.014568
0.0143881
0.0142135
0.0140444
0.013881
0.0137239
0.0135738
0.0134315
0.0132976
0.0131576
0.00092827
0.00476737
0.00680442
0.00811132
0.00911359
0.00995619
0.0107061
0.0114011
0.0120654
0.0127161
0.0133651
0.0140214
0.0146912
0.0153792
0.0160886
0.0168219
0.0175804
0.0183654
0.0191776
0.0200173
0.020885
0.0217806
0.022704
0.0236548
0.0246322
0.0256353
0.026663
0.0277138
0.0287861
0.0298779
0.030987
0.032111
0.0332473
0.0343929
0.0355449
0.0367002
0.0378554
0.0390072
0.0401521
0.0412869
0.042408
0.0435122
0.0445961
0.0456566
0.0466906
0.0476952
0.0486676
0.0496053
0.050506
0.0513673
0.0521875
0.0529648
0.0536976
0.0543846
0.0550247
0.0556171
0.0561611
0.0566563
0.0571023
0.0574991
0.0578468
0.0581457
0.0583962
0.0585989
0.0587546
0.058864
0.0589282
0.0589481
0.0589255
0.0588602
0.0587537
0.0586085
0.058426
0.0582078
0.0579554
0.0576705
0.0573548
0.0570097
0.0566371
0.0562385
0.0558156
0.0553701
0.0549034
0.0544173
0.0539132
0.0533925
0.0528568
0.0523074
0.0517457
0.0511729
0.0505902
0.049999
0.0494001
0.0487949
0.0481842
0.0475691
0.0469504
0.0463291
0.0457059
0.0450816
0.0444569
0.0438324
0.0432089
0.0425868
0.0419667
0.0413492
0.0407345
0.0401233
0.0395158
0.0389125
0.0383137
0.0377196
0.0371306
0.036547
0.035969
0.0353968
0.0348306
0.0342707
0.0337172
0.0331703
0.0326302
0.032097
0.0315708
0.0310518
0.0305401
0.0300358
0.0295389
0.0290496
0.028568
0.028094
0.0276277
0.0271692
0.0267186
0.0262758
0.0258408
0.0254137
0.0249944
0.024583
0.0241795
0.0237837
0.0233957
0.0230155
0.0226429
0.022278
0.0219206
0.0215708
0.0212283
0.0208933
0.0205655
0.0202449
0.0199314
0.0196249
0.0193253
0.0190325
0.0187465
0.0184671
0.0181941
0.0179276
0.0176674
0.0174133
0.0171653
0.0169233
0.0166871
0.0164567
0.0162319
0.0160126
0.0157988
0.0155904
0.0153873
0.0151895
0.0149969
0.0148097
0.0146278
0.0144516
0.0142812
0.0141171
0.0139597
0.01381
0.0136676
0.0135217
0.000918373
0.00475893
0.00678929
0.00810058
0.00911433
0.00997558
0.0107478
0.0114669
0.0121564
0.0128332
0.0135093
0.0141937
0.0148928
0.0156115
0.0163535
0.0171212
0.0179165
0.0187409
0.0195954
0.0204808
0.0213973
0.0223451
0.023324
0.0243332
0.0253721
0.0264392
0.0275332
0.0286522
0.0297939
0.0309561
0.0321358
0.0333303
0.0345362
0.0357502
0.0369688
0.0381884
0.0394052
0.0406156
0.0418159
0.0430023
0.0441712
0.0453193
0.046443
0.0475392
0.0486048
0.0496371
0.0506332
0.0515909
0.0525078
0.053382
0.0542118
0.0549955
0.0557319
0.0564198
0.0570585
0.0576472
0.0581855
0.0586731
0.0591099
0.0594961
0.0598318
0.0601177
0.0603542
0.0605421
0.0606822
0.0607755
0.060823
0.0608259
0.0607864
0.0607025
0.060578
0.0604147
0.060214
0.0599775
0.0597068
0.0594036
0.0590696
0.0587063
0.0583155
0.0578989
0.057458
0.0569945
0.05651
0.056006
0.0554842
0.0549459
0.0543926
0.0538257
0.0532466
0.0526564
0.0520565
0.0514479
0.0508319
0.0502095
0.0495817
0.0489494
0.0483137
0.0476753
0.047035
0.0463937
0.0457519
0.0451104
0.0444699
0.0438307
0.0431936
0.042559
0.0419273
0.041299
0.0406745
0.0400542
0.0394383
0.0388273
0.0382214
0.0376208
0.037026
0.036437
0.0358541
0.0352776
0.0347076
0.0341443
0.0335879
0.0330385
0.0324963
0.0319614
0.0314339
0.030914
0.0304018
0.0298972
0.0294005
0.0289116
0.0284307
0.0279578
0.0274929
0.027036
0.0265873
0.0261465
0.0257139
0.0252894
0.0248729
0.0244644
0.0240639
0.0236714
0.0232868
0.0229101
0.0225411
0.0221799
0.0218263
0.0214803
0.0211418
0.0208107
0.020487
0.0201704
0.019861
0.0195586
0.0192631
0.0189744
0.0186924
0.018417
0.0181481
0.0178855
0.0176292
0.0173791
0.0171349
0.0168967
0.0166643
0.0164375
0.0162164
0.0160009
0.0157908
0.0155861
0.0153868
0.015193
0.0150047
0.0148221
0.0146453
0.0144749
0.0143111
0.0141546
0.0140049
0.0138536
0.000899932
0.00472188
0.00673351
0.00804461
0.00906656
0.00993908
0.0107272
0.0114672
0.0121836
0.01289
0.0135984
0.0143175
0.0150538
0.0158121
0.0165962
0.0174089
0.0182525
0.0191286
0.0200384
0.0209828
0.021962
0.0229759
0.024024
0.0251053
0.0262185
0.0273618
0.0285332
0.0297302
0.0309499
0.0321892
0.0334447
0.0347128
0.0359896
0.0372713
0.0385538
0.0398331
0.0411052
0.0423661
0.0436119
0.0448388
0.0460432
0.0472216
0.0483707
0.0494876
0.0505692
0.051613
0.0526167
0.0535779
0.0544949
0.0553659
0.0561894
0.0569642
0.0576893
0.0583639
0.0589873
0.0595592
0.0600793
0.0605477
0.0609644
0.0613297
0.0616442
0.0619083
0.0621228
0.0622887
0.0624068
0.0624781
0.0625039
0.0624859
0.0624239
0.0623188
0.0621736
0.06199
0.0617695
0.0615135
0.0612239
0.0609021
0.0605499
0.0601689
0.0597608
0.0593272
0.0588697
0.0583899
0.0578895
0.0573699
0.0568327
0.0562794
0.0557112
0.0551297
0.0545361
0.0539317
0.0533176
0.0526951
0.0520652
0.051429
0.0507876
0.0501417
0.0494924
0.0488404
0.0481866
0.0475317
0.0468764
0.0462213
0.0455671
0.0449143
0.0442635
0.0436152
0.0429697
0.0423276
0.0416893
0.041055
0.0404252
0.0398002
0.0391803
0.0385658
0.0379569
0.0373539
0.0367571
0.0361666
0.0355826
0.0350055
0.0344353
0.0338721
0.0333163
0.0327678
0.0322269
0.0316936
0.0311682
0.0306505
0.0301408
0.0296392
0.0291456
0.0286601
0.0281829
0.0277139
0.0272531
0.0268006
0.0263563
0.0259203
0.0254926
0.025073
0.0246617
0.0242585
0.0238633
0.0234763
0.0230972
0.0227261
0.0223628
0.0220072
0.0216594
0.0213191
0.0209863
0.0206609
0.0203429
0.020032
0.0197282
0.0194314
0.0191415
0.0188583
0.0185817
0.0183117
0.0180481
0.0177907
0.0175396
0.0172945
0.0170553
0.016822
0.0165944
0.0163725
0.0161563
0.0159455
0.0157403
0.0155406
0.0153465
0.0151582
0.0149758
0.0147997
0.0146301
0.0144675
0.0143114
0.0141552
0.000870677
0.00464009
0.00662587
0.0079339
0.00896516
0.00985602
0.0106691
0.0114392
0.0121872
0.0129297
0.0136791
0.0144433
0.0152288
0.0160405
0.0168823
0.0177573
0.0186676
0.019615
0.0206006
0.0216247
0.0226873
0.0237877
0.0249248
0.0260969
0.0273017
0.0285368
0.029799
0.031085
0.032391
0.0337131
0.035047
0.0363886
0.0377333
0.0390769
0.0404151
0.0417434
0.0430578
0.0443543
0.0456291
0.0468785
0.0480991
0.0492879
0.0504417
0.0515581
0.0526344
0.0536685
0.0546584
0.0556025
0.0564991
0.057347
0.0581451
0.0588926
0.0595889
0.0602333
0.0608257
0.0613659
0.0618539
0.06229
0.0626745
0.0630078
0.0632906
0.0635237
0.0637077
0.0638438
0.0639329
0.0639764
0.063975
0.0639312
0.0638423
0.0637129
0.0635444
0.0633383
0.0630963
0.0628198
0.0625105
0.0621699
0.0617997
0.0614015
0.0609769
0.0605275
0.0600549
0.0595606
0.0590462
0.0585132
0.0579631
0.0573972
0.056817
0.0562237
0.0556187
0.0550031
0.0543782
0.053745
0.0531046
0.052458
0.0518063
0.0511503
0.0504909