/*--------------------------------*- C++ -*----------------------------------*\
  =========                 |
  \\      /  F ield         | OpenFOAM: The Open Source CFD Toolbox
   \\    /   O peration     | Website:  https://openfoam.org
    \\  /    A nd           | Version:  6
     \\/     M anipulation  |
\*---------------------------------------------------------------------------*/
FoamFile
{
    version     2.0;
    format      ascii;
    class       volScalarField;
    location    "200";
    object      nut;
}
// * * * * * * * * * * * * * * * * * * * * * * * * * * * * * * * * * * * * * //

dimensions      [0 2 -1 0 0 0 0];

internalField   nonuniform List<scalar> 
12225
(
2.54152e-05
9.22424e-06
6.81686e-06
5.73567e-06
5.04224e-06
4.53344e-06
4.13606e-06
3.81408e-06
3.54679e-06
3.32109e-06
3.12817e-06
2.96191e-06
2.81799e-06
2.69359e-06
2.58717e-06
2.50087e-06
2.43722e-06
2.47655e-06
0.00014546
9.67948e-05
8.71159e-05
8.07475e-05
7.6031e-05
7.22478e-05
6.90791e-05
6.63541e-05
6.39702e-05
6.18605e-05
5.99792e-05
5.82943e-05
5.67844e-05
5.54372e-05
5.42583e-05
5.32632e-05
5.25973e-05
5.25078e-05
0.000311823
0.000216534
0.00019652
0.000184348
0.000175208
0.000167713
0.000161294
0.000155664
0.00015065
0.000146143
0.000142067
0.000138372
0.000135025
0.000132011
0.000129358
0.000127111
0.000125675
0.000124866
0.000468997
0.000336433
0.000303533
0.000285364
0.000272223
0.00026154
0.000252385
0.000244323
0.00023711
0.000230595
0.000224676
0.000219286
0.000214383
0.000209951
0.000206023
0.000202673
0.000200312
0.00019886
0.000595827
0.00044776
0.000403278
0.000379345
0.000362581
0.000349182
0.000337777
0.000327754
0.000318784
0.000310668
0.00030328
0.000296536
0.000290384
0.000284802
0.000279818
0.000275514
0.000272203
0.000269943
0.000689194
0.000546059
0.000494049
0.000465269
0.000445359
0.000429669
0.00041643
0.000404846
0.000394494
0.000385127
0.000376592
0.000368788
0.00036165
0.00035515
0.000349303
0.00034418
0.00033999
0.000336829
0.000753368
0.000629254
0.000574688
0.000542647
0.000520293
0.000502779
0.000488129
0.000475347
0.000463934
0.000453606
0.000444186
0.00043556
0.000427658
0.00042044
0.000413902
0.000408092
0.000403137
0.000399113
0.00079437
0.000697544
0.000644355
0.000611054
0.00058726
0.00056859
0.000552939
0.000539298
0.000527124
0.000516104
0.000506044
0.000496817
0.000488341
0.000480568
0.000473485
0.000467117
0.000461532
0.000456769
0.000820267
0.000749691
0.000702435
0.000670111
0.000646109
0.000626937
0.000610763
0.000596627
0.00058399
0.000572535
0.000562061
0.000552437
0.000543574
0.000535419
0.000527948
0.000521165
0.000515097
0.000509749
0.000835851
0.000787717
0.000748951
0.000719598
0.00069662
0.000677736
0.000661577
0.000647343
0.000634557
0.000622928
0.000612264
0.000602438
0.000593364
0.000584984
0.000577267
0.000570204
0.000563794
0.000558021
0.000844687
0.000814034
0.00078451
0.000759556
0.000738711
0.000720914
0.000705341
0.000691435
0.000678836
0.000667305
0.00065668
0.000646852
0.00063774
0.000629292
0.000621473
0.000614265
0.000607651
0.000601604
0.000848914
0.000829696
0.000808054
0.000787772
0.000769646
0.000753498
0.000738976
0.000725772
0.000713663
0.000702483
0.000692114
0.00068247
0.000673487
0.000665121
0.00065734
0.000650122
0.000643444
0.000637275
0.000851039
0.000839732
0.00082483
0.000809218
0.000794167
0.000780075
0.000766969
0.000754776
0.000743414
0.000732803
0.000722872
0.000713569
0.000704853
0.000696692
0.000689058
0.000681932
0.000675291
0.000669103
0.000851864
0.000845902
0.000836805
0.000826011
0.000814615
0.000803174
0.000792021
0.000781324
0.000771125
0.000761433
0.000752234
0.000743523
0.000735289
0.000727517
0.000720191
0.000713299
0.000706822
0.000700736
0.000851773
0.000848518
0.000843465
0.000836802
0.000829068
0.000820732
0.000812108
0.000803405
0.000794795
0.000786393
0.000778265
0.000770453
0.000762969
0.000755819
0.000749002
0.000742521
0.000736369
0.000730533
0.000851214
0.000848543
0.000845505
0.000841622
0.000836832
0.000831336
0.000825322
0.000818946
0.000812351
0.000805653
0.000798963
0.000792351
0.00078587
0.00077956
0.000773453
0.000767565
0.000761904
0.000756474
0.00085059
0.000847335
0.000844646
0.000842011
0.00083907
0.000835657
0.000831748
0.000827401
0.000822698
0.000817726
0.000812563
0.000807282
0.000801952
0.000796625
0.00079135
0.000786163
0.00078109
0.000776156
0.000850207
0.000846299
0.000843292
0.00084083
0.000838525
0.000836093
0.000833363
0.000830262
0.000826773
0.000822934
0.0008188
0.000814438
0.000809915
0.000805293
0.000800623
0.000795949
0.000791304
0.000786713
0.000850317
0.00084657
0.000843623
0.000841111
0.000838658
0.000836019
0.000833047
0.000829692
0.000825956
0.000821884
0.00081754
0.000812988
0.000808291
0.000803505
0.000798679
0.000793857
0.000789075
0.000784366
0.000851007
0.000848155
0.000845286
0.000841925
0.000837868
0.000833145
0.000827911
0.000822293
0.000816406
0.000810348
0.00080419
0.000797994
0.000791825
0.000785728
0.000779742
0.000773892
0.000768201
0.000762684
0.000851737
0.000848339
0.000843229
0.000836607
0.000828979
0.0008208
0.000812323
0.00080372
0.000795161
0.00078675
0.000778555
0.000770602
0.000762918
0.000755521
0.000748417
0.000741604
0.00073508
0.000728844
0.000851476
0.000842987
0.000831226
0.000818203
0.000805095
0.000792338
0.000780104
0.000768472
0.000757469
0.000747066
0.00073723
0.000727942
0.000719152
0.00071082
0.000702916
0.000695418
0.000688307
0.000681569
0.000847661
0.000825354
0.00080165
0.000780022
0.000760914
0.000744031
0.000728949
0.000715306
0.000702793
0.000691225
0.00068047
0.000670433
0.000661033
0.000652207
0.000643901
0.000636075
0.000628697
0.000621746
0.000835158
0.000786778
0.0007479
0.000718259
0.000695028
0.000675905
0.00065952
0.000645063
0.00063204
0.000620146
0.000609185
0.00059902
0.000589553
0.000580705
0.000572415
0.000564634
0.000557324
0.000550465
0.000804784
0.000718418
0.000666709
0.000633023
0.000608635
0.000589456
0.000573346
0.000559271
0.000546672
0.000535217
0.000524697
0.000514971
0.000505937
0.000497516
0.000489645
0.000482274
0.000475367
0.000468909
0.000742524
0.000614053
0.000558869
0.000526709
0.000504399
0.000486943
0.000472347
0.000459621
0.000448233
0.000437888
0.000428399
0.000419641
0.000411522
0.000403969
0.000396929
0.000390352
0.000384201
0.000378472
0.000627187
0.000477838
0.000429257
0.00040319
0.000385201
0.000370948
0.000358863
0.000348252
0.000338747
0.000330121
0.000322225
0.000314955
0.000308231
0.000301991
0.000296182
0.000290765
0.00028571
0.000281025
0.000449251
0.000317379
0.000284624
0.000266892
0.000254186
0.000243895
0.00023509
0.000227348
0.000220426
0.000214169
0.000208466
0.00020324
0.000198428
0.000193981
0.00018986
0.000186029
0.000182467
0.000179188
0.000229945
0.000151441
0.000134979
0.000125209
0.000118077
0.000112343
0.000107512
0.000103336
9.96644e-05
9.63955e-05
9.34586e-05
9.08012e-05
8.83832e-05
8.61728e-05
8.41443e-05
8.22751e-05
8.05506e-05
7.898e-05
5.25358e-05
2.33972e-05
1.71689e-05
1.4374e-05
1.26143e-05
1.13285e-05
1.03194e-05
9.49622e-06
8.80776e-06
8.22178e-06
7.71636e-06
7.27586e-06
6.88868e-06
6.54595e-06
6.24069e-06
5.96757e-06
5.72075e-06
5.50232e-06
4.15121e-09
1.42819e-07
2.89183e-07
4.23932e-07
5.37368e-07
6.4463e-07
7.50913e-07
8.57845e-07
9.69325e-07
1.08832e-06
1.21672e-06
1.35635e-06
1.50936e-06
1.67827e-06
1.86563e-06
2.07376e-06
2.3043e-06
2.55829e-06
2.8359e-06
3.13744e-06
3.46199e-06
3.80847e-06
4.17536e-06
4.56157e-06
4.96592e-06
5.38385e-06
5.81304e-06
6.2518e-06
6.69805e-06
7.15043e-06
7.60705e-06
8.06683e-06
8.52797e-06
8.98958e-06
9.44995e-06
9.90826e-06
1.03628e-05
1.08127e-05
1.12563e-05
1.16929e-05
1.21207e-05
1.25392e-05
1.29473e-05
1.33459e-05
1.37363e-05
1.41201e-05
1.44872e-05
1.48412e-05
1.51801e-05
1.55042e-05
1.58122e-05
1.61041e-05
1.63787e-05
1.6636e-05
1.68751e-05
1.70958e-05
1.72976e-05
1.74805e-05
1.76439e-05
1.7788e-05
1.79125e-05
1.80177e-05
1.81037e-05
1.81707e-05
1.82195e-05
1.8251e-05
1.82664e-05
1.82613e-05
1.82346e-05
1.81885e-05
1.81305e-05
1.80559e-05
1.79657e-05
1.78602e-05
1.77406e-05
1.76071e-05
1.74608e-05
1.73021e-05
1.71322e-05
1.69513e-05
1.67606e-05
1.65605e-05
1.63521e-05
1.61356e-05
1.59119e-05
1.56817e-05
1.5447e-05
1.52073e-05
1.49627e-05
1.4714e-05
1.44616e-05
1.42065e-05
1.39493e-05
1.36906e-05
1.34309e-05
1.31707e-05
1.29105e-05
1.26507e-05
1.23917e-05
1.21338e-05
1.18775e-05
1.16229e-05
1.13706e-05
1.11206e-05
1.08733e-05
1.06289e-05
1.03876e-05
1.01495e-05
9.91487e-06
9.68375e-06
9.45633e-06
9.23265e-06
9.01284e-06
8.79695e-06
8.58505e-06
8.37735e-06
8.17363e-06
7.97384e-06
7.77832e-06
7.58741e-06
7.40088e-06
7.21855e-06
7.04037e-06
6.86627e-06
6.69625e-06
6.53025e-06
6.36825e-06
6.21021e-06
6.05611e-06
5.90584e-06
5.75937e-06
5.61664e-06
5.47765e-06
5.34235e-06
5.21066e-06
5.08267e-06
4.95839e-06
4.83771e-06
4.72054e-06
4.60675e-06
4.49623e-06
4.38884e-06
4.28468e-06
4.18376e-06
4.08571e-06
3.99045e-06
3.89806e-06
3.80844e-06
3.72157e-06
3.63738e-06
3.5558e-06
3.47672e-06
3.40007e-06
3.32575e-06
3.25368e-06
3.18377e-06
3.11596e-06
3.05019e-06
2.98642e-06
2.92458e-06
2.86459e-06
2.80638e-06
2.74986e-06
2.69495e-06
2.64157e-06
2.58966e-06
2.53914e-06
2.48992e-06
2.44192e-06
2.39501e-06
2.34909e-06
2.30391e-06
2.2596e-06
2.21515e-06
2.1721e-06
2.12637e-06
2.0831e-06
2.03794e-06
1.98973e-06
1.80601e-06
2.58549e-08
2.64046e-06
9.10517e-06
1.45572e-05
1.80267e-05
2.00928e-05
2.1403e-05
2.24182e-05
2.33619e-05
2.43219e-05
2.53258e-05
2.63891e-05
2.7528e-05
2.87589e-05
3.00975e-05
3.15565e-05
3.31428e-05
3.48562e-05
3.66875e-05
3.86554e-05
4.07623e-05
4.30014e-05
4.5363e-05
4.78365e-05
5.0411e-05
5.30767e-05
5.58206e-05
5.86301e-05
6.14929e-05
6.43972e-05
6.73318e-05
7.02862e-05
7.32507e-05
7.62162e-05
7.91744e-05
8.21174e-05
8.50375e-05
8.79271e-05
9.07779e-05
9.35807e-05
9.63244e-05
9.89945e-05
0.00010157
0.000104019
0.000106286
0.000108363
0.000110359
0.00011228
0.000114129
0.000115902
0.000117598
0.000119214
0.000120747
0.000122197
0.000123561
0.000124837
0.000126023
0.00012712
0.000128125
0.000129038
0.00012986
0.000130589
0.000131226
0.000131773
0.00013223
0.0001326
0.000132891
0.00013307
0.000133161
0.000133179
0.000133119
0.000132981
0.000132769
0.000132485
0.00013213
0.00013171
0.000131225
0.000130679
0.000130076
0.000129418
0.000128707
0.000127948
0.000127143
0.000126295
0.000125405
0.000124477
0.000123515
0.000122522
0.000121497
0.000120445
0.000119368
0.000118269
0.000117149
0.000116012
0.00011486
0.000113694
0.000112517
0.000111329
0.000110134
0.000108933
0.000107726
0.000106516
0.000105304
0.000104091
0.000102878
0.000101667
0.000100458
9.92518e-05
9.80496e-05
9.68522e-05
9.56601e-05
9.44739e-05
9.32943e-05
9.21217e-05
9.09565e-05
8.97983e-05
8.86432e-05
8.74956e-05
8.63612e-05
8.52387e-05
8.41267e-05
8.3025e-05
8.19338e-05
8.08534e-05
7.97841e-05
7.87262e-05
7.76798e-05
7.66454e-05
7.56224e-05
7.46104e-05
7.36098e-05
7.26212e-05
7.16449e-05
7.06812e-05
6.97303e-05
6.87949e-05
6.78743e-05
6.69677e-05
6.60746e-05
6.51942e-05
6.4326e-05
6.34713e-05
6.26234e-05
6.17791e-05
6.09446e-05
6.01227e-05
5.93142e-05
5.85203e-05
5.77411e-05
5.69763e-05
5.62254e-05
5.54879e-05
5.47636e-05
5.40522e-05
5.33534e-05
5.26666e-05
5.19922e-05
5.13304e-05
5.0681e-05
5.00437e-05
4.94179e-05
4.88031e-05
4.81987e-05
4.76039e-05
4.70185e-05
4.6442e-05
4.58736e-05
4.53122e-05
4.47564e-05
4.42044e-05
4.36538e-05
4.31017e-05
4.25452e-05
4.19721e-05
4.1397e-05
4.07364e-05
4.01517e-05
3.93763e-05
3.84641e-05
3.53131e-05
6.26035e-08
6.07974e-06
1.93222e-05
3.07248e-05
3.89329e-05
4.46217e-05
4.86404e-05
5.16816e-05
5.42247e-05
5.65676e-05
5.8883e-05
6.12701e-05
6.37898e-05
6.6484e-05
6.93839e-05
7.25135e-05
7.5891e-05
7.95302e-05
8.34803e-05
8.76507e-05
9.2026e-05
9.65874e-05
0.000101314
0.000106182
0.00011117
0.000116256
0.000121417
0.000126632
0.000131882
0.00013715
0.00014242
0.000147676
0.000152906
0.000158099
0.000163243
0.000168329
0.000173345
0.000178282
0.00018313
0.000187876
0.000192507
0.000197009
0.000201367
0.000205559
0.000209576
0.000213431
0.000217152
0.000220743
0.000224204
0.000227531
0.000230722
0.000233772
0.000236677
0.000239434
0.000242041
0.000244495
0.000246793
0.000248934
0.000250915
0.000252737
0.000254399
0.0002559
0.000257241
0.000258423
0.000259448
0.000260319
0.000261058
0.00026163
0.000262023
0.000262283
0.000262404
0.000262387
0.000262237
0.000261956
0.00026155
0.000261022
0.000260378
0.000259622
0.000258758
0.000257792
0.000256728
0.000255571
0.000254326
0.000252996
0.000251586
0.000250101
0.000248544
0.000246921
0.000245236
0.000243493
0.000241697
0.000239853
0.000237964
0.000236034
0.000234066
0.000232065
0.000230032
0.000227972
0.000225887
0.000223779
0.000221651
0.000219506
0.000217347
0.000215176
0.000212995
0.000210805
0.000208609
0.000206407
0.000204202
0.000201995
0.000199787
0.000197579
0.000195373
0.000193169
0.000190969
0.000188773
0.000186579
0.00018439
0.000182208
0.000180035
0.000177871
0.000175715
0.000173571
0.000171437
0.000169316
0.000167208
0.000165114
0.000163033
0.000160966
0.000158908
0.000156864
0.000154836
0.000152825
0.000150832
0.000148858
0.000146911
0.000144989
0.000143087
0.000141206
0.000139344
0.0001375
0.000135676
0.000133869
0.000132078
0.000130304
0.000128549
0.000126815
0.000125107
0.000123423
0.000121764
0.000120128
0.000118516
0.000116927
0.000115361
0.000113818
0.000112296
0.000110798
0.000109325
0.000107876
0.000106451
0.000105048
0.000103667
0.000102307
0.000100967
9.9647e-05
9.83464e-05
9.70639e-05
9.57978e-05
9.45457e-05
9.33046e-05
9.2071e-05
9.08404e-05
8.96094e-05
8.83568e-05
8.7115e-05
8.57254e-05
8.45465e-05
8.30468e-05
8.15634e-05
7.66435e-05
1.08972e-07
9.16543e-06
2.76133e-05
4.34502e-05
5.51867e-05
6.37276e-05
7.01033e-05
7.51384e-05
7.94358e-05
8.34064e-05
8.73133e-05
9.1317e-05
9.55125e-05
9.99549e-05
0.000104675
0.000109689
0.000114999
0.0001206
0.000126446
0.000132564
0.000138886
0.000145385
0.000152035
0.000158806
0.000165672
0.000172606
0.000179586
0.000186588
0.000193594
0.000200585
0.000207546
0.000214463
0.000221322
0.000228113
0.000234824
0.000241445
0.000247966
0.000254378
0.000260668
0.000266826
0.00027284
0.000278696
0.000284382
0.000289893
0.000295232
0.000300403
0.000305411
0.000310257
0.000314936
0.000319445
0.00032378
0.000327935
0.000331906
0.000335689
0.00033928
0.000342675
0.000345871
0.000348867
0.000351659
0.000354247
0.00035663
0.000358807
0.000360778
0.000362545
0.000364108
0.000365485
0.000366696
0.000367675
0.000368444
0.000369038
0.000369451
0.000369685
0.000369743
0.000369629
0.00036935
0.00036891
0.000368315
0.000367569
0.000366679
0.000365651
0.000364489
0.0003632
0.000361789
0.000360262
0.000358624
0.000356879
0.000355034
0.000353094
0.000351065
0.000348952
0.000346761
0.000344498
0.000342166
0.000339771
0.000337317
0.000334809
0.000332251
0.000329647
0.000327
0.000324312
0.000321588
0.000318832
0.000316048
0.000313239
0.000310406
0.000307553
0.000304681
0.000301793
0.000298891
0.000295977
0.000293053
0.00029012
0.00028718
0.000284235
0.000281287
0.000278336
0.000275383
0.000272429
0.000269476
0.000266527
0.000263582
0.000260643
0.000257711
0.000254787
0.000251874
0.000248972
0.000246082
0.000243206
0.000240343
0.000237493
0.000234657
0.000231838
0.000229037
0.000226255
0.000223495
0.000220759
0.000218049
0.000215363
0.0002127
0.000210055
0.000207432
0.000204832
0.000202255
0.000199701
0.000197169
0.000194663
0.000192182
0.000189735
0.00018732
0.000184934
0.000182578
0.00018025
0.000177952
0.000175682
0.000173439
0.000171223
0.00016904
0.00016689
0.000164772
0.000162683
0.000160623
0.000158591
0.000156585
0.000154605
0.000152653
0.000150726
0.000148824
0.000146942
0.000145079
0.00014323
0.000141391
0.000139557
0.000137721
0.000135861
0.000134006
0.000131985
0.000130217
0.000128055
0.00012604
0.00012006
1.57081e-07
1.17745e-05
3.44172e-05
5.39257e-05
6.89009e-05
8.01764e-05
8.88856e-05
9.59448e-05
0.000102042
0.000107667
0.00011315
0.000118699
0.00012444
0.00013044
0.000136731
0.000143319
0.000150197
0.000157343
0.00016473
0.000172316
0.000180097
0.000188029
0.000196076
0.00020421
0.000212402
0.000220629
0.000228868
0.000237098
0.000245301
0.000253462
0.000261566
0.000269601
0.000277555
0.000285419
0.000293182
0.000300836
0.000308372
0.000315782
0.000323057
0.000330188
0.000337164
0.000343973
0.000350612
0.000357079
0.000363371
0.000369487
0.000375426
0.000381184
0.000386756
0.000392139
0.000397326
0.000402312
0.000407092
0.000411661
0.000416014
0.000420149
0.000424061
0.000427747
0.000431205
0.000434433
0.000437429
0.000440194
0.000442726
0.000445027
0.000447097
0.000448971
0.000450621
0.000452022
0.000453183
0.000454133
0.000454872
0.000455402
0.000455728
0.000455855
0.000455788
0.000455533
0.000455096
0.000454482
0.000453697
0.000452749
0.000451642
0.000450384
0.00044898
0.000447436
0.000445758
0.000443953
0.000442025
0.000439982
0.000437829
0.000435572
0.000433218
0.000430771
0.000428238
0.000425624
0.000422934
0.000420172
0.000417344
0.000414454
0.000411507
0.000408507
0.000405466
0.00040238
0.000399253
0.000396085
0.000392881
0.000389643
0.000386373
0.000383074
0.000379749
0.000376401
0.000373031
0.000369641
0.000366234
0.000362813
0.000359378
0.000355932
0.000352475
0.000349009
0.000345537
0.000342063
0.000338586
0.000335109
0.000331634
0.000328163
0.000324697
0.000321238
0.000317788
0.000314348
0.000310919
0.000307502
0.000304099
0.000300712
0.000297342
0.00029399
0.00029066
0.000287352
0.000284069
0.000280811
0.000277579
0.00027437
0.000271185
0.000268026
0.000264893
0.000261787
0.000258707
0.000255655
0.00025263
0.000249633
0.000246667
0.000243733
0.000240831
0.000237961
0.000235124
0.000232317
0.000229539
0.000226791
0.000224086
0.000221419
0.000218787
0.000216188
0.000213619
0.000211081
0.000208572
0.000206094
0.000203648
0.000201232
0.000198843
0.000196476
0.000194129
0.000191796
0.000189475
0.000187159
0.000184841
0.000182495
0.000180141
0.000177647
0.000175211
0.000172697
0.00017005
0.000163698
2.00554e-07
1.38208e-05
3.97353e-05
6.23936e-05
8.02908e-05
9.42002e-05
0.000105226
0.000114327
0.00012224
0.000129505
0.0001365
0.000143473
0.000150577
0.000157897
0.000165472
0.00017331
0.000181399
0.000189719
0.000198238
0.000206924
0.000215742
0.000224666
0.000233674
0.000242737
0.000251828
0.000260923
0.00027
0.000279039
0.000288024
0.00029694
0.000305774
0.000314517
0.000323157
0.000331687
0.000340098
0.000348383
0.000356538
0.000364558
0.000372435
0.000380165
0.000387744
0.00039517
0.000402435
0.000409532
0.000416458
0.000423208
0.000429777
0.000436161
0.000442353
0.000448349
0.000454142
0.000459727
0.000465097
0.000470249
0.000475176
0.000479875
0.000484341
0.000488571
0.000492562
0.000496312
0.000499819
0.000503081
0.000506098
0.000508869
0.000511408
0.000513727
0.000515796
0.000517606
0.00051917
0.000520504
0.000521608
0.000522486
0.000523143
0.000523584
0.000523814
0.000523838
0.000523663
0.000523294
0.000522738
0.000522
0.000521086
0.000520004
0.00051876
0.000517358
0.000515807
0.000514111
0.000512278
0.000510312
0.000508221
0.000506009
0.000503684
0.000501251
0.000498716
0.000496084
0.00049336
0.00049055
0.000487659
0.00048469
0.000481649
0.000478539
0.000475365
0.000472131
0.000468842
0.0004655
0.000462109
0.000458672
0.000455191
0.00045167
0.000448111
0.000444518
0.000440892
0.000437236
0.000433552
0.000429844
0.000426113
0.000422361
0.000418592
0.000414812
0.00041102
0.000407216
0.000403403
0.000399582
0.000395756
0.000391927
0.000388097
0.000384268
0.000380443
0.000376624
0.000372811
0.000369006
0.000365213
0.000361434
0.000357669
0.000353922
0.000350193
0.000346486
0.000342801
0.00033914
0.000335505
0.000331894
0.00032831
0.000324752
0.000321223
0.000317722
0.000314251
0.00031081
0.000307398
0.000304018
0.00030067
0.000297355
0.000294074
0.000290827
0.000287615
0.00028443
0.000281275
0.000278153
0.000275067
0.00027202
0.000269007
0.000266027
0.000263079
0.000260161
0.000257275
0.000254423
0.00025161
0.000248827
0.000246071
0.000243339
0.000240625
0.000237924
0.000235239
0.000232559
0.000229874
0.000227163
0.000224428
0.000221582
0.000218687
0.000215866
0.000212633
0.000206364
2.35812e-07
1.53177e-05
4.36684e-05
6.90381e-05
8.94603e-05
0.000105837
0.000119102
0.000130209
0.000139911
0.000148772
0.0001572
0.000165474
0.000173771
0.000182196
0.000190802
0.000199608
0.000208607
0.000217783
0.000227113
0.000236565
0.000246107
0.000255713
0.000265353
0.000275
0.00028463
0.000294223
0.000303762
0.000313232
0.000322622
0.000331923
0.000341126
0.000350225
0.000359214
0.00036809
0.000376848
0.000385484
0.000393994
0.000402371
0.000410613
0.000418715
0.000426674
0.000434484
0.000442142
0.000449641
0.000456975
0.000464141
0.000471132
0.000477941
0.000484564
0.000490993
0.000497223
0.000503246
0.000509057
0.000514651
0.00052002
0.000525162
0.000530071
0.000534742
0.000539173
0.000543361
0.000547303
0.000550996
0.000554441
0.000557636
0.000560602
0.000563319
0.000565789
0.000567997
0.000569958
0.000571677
0.000573156
0.0005744
0.000575412
0.000576199
0.000576764
0.000577115
0.000577256
0.000577192
0.000576931
0.000576477
0.000575837
0.000575016
0.000574022
0.000572861
0.000571537
0.000570058
0.00056843
0.000566657
0.000564747
0.000562706
0.000560538
0.00055825
0.000555848
0.000553336
0.00055072
0.000548005
0.000545196
0.000542298
0.000539314
0.000536248
0.000533106
0.000529891
0.000526607
0.000523258
0.000519847
0.000516377
0.000512851
0.000509273
0.000505644
0.000501968
0.000498248
0.000494487
0.000490687
0.00048685
0.00048298
0.000479079
0.000475149
0.000471193
0.000467215
0.000463217
0.000459202
0.000455171
0.000451129
0.000447077
0.000443017
0.000438953
0.000434887
0.000430822
0.000426762
0.00042271
0.000418665
0.00041463
0.000410606
0.000406597
0.000402604
0.00039863
0.000394675
0.000390743
0.000386835
0.000382952
0.000379095
0.000375266
0.000371464
0.000367692
0.00036395
0.00036024
0.000356561
0.000352916
0.000349304
0.000345726
0.000342184
0.000338678
0.000335208
0.000331771
0.000328367
0.000324996
0.000321662
0.000318365
0.000315101
0.000311867
0.000308665
0.000305494
0.000302354
0.000299245
0.000296167
0.000293118
0.000290095
0.000287095
0.000284111
0.00028114
0.000278191
0.000275247
0.000272296
0.000269319
0.000266308
0.000263208
0.000260021
0.00025681
0.000253412
0.000247164
2.61675e-07
1.63304e-05
4.63872e-05
7.39403e-05
9.65738e-05
0.000115166
0.000130527
0.000143546
0.000154961
0.000165342
0.000175109
0.000184574
0.000193918
0.000203261
0.000212663
0.000222192
0.000231854
0.000241636
0.000251514
0.000261446
0.000271411
0.000281385
0.000291344
0.000301269
0.000311142
0.000320948
0.000330674
0.000340312
0.000349854
0.000359295
0.000368631
0.000377859
0.000386976
0.000395982
0.000404874
0.000413652
0.000422311
0.000430851
0.000439268
0.000447559
0.00045572
0.000463747
0.000471636
0.00047938
0.000486974
0.000494412
0.000501687
0.000508793
0.000515723
0.000522469
0.000529024
0.000535382
0.000541536
0.000547479
0.000553205
0.000558709
0.000563985
0.000569029
0.000573836
0.000578404
0.000582728
0.000586807
0.000590638
0.000594225
0.000597574
0.00060067
0.000603519
0.000606113
0.00060846
0.000610562
0.000612415
0.000614027
0.000615405
0.000616553
0.000617476
0.000618178
0.000618665
0.000618942
0.000619016
0.00061889
0.000618572
0.000618068
0.000617382
0.000616521
0.000615492
0.000614299
0.000612948
0.000611446
0.000609798
0.00060801
0.000606086
0.000604034
0.000601857
0.000599561
0.000597151
0.000594632
0.000592008
0.000589283
0.000586463
0.000583551
0.00058055
0.000577465
0.0005743
0.000571057
0.000567741
0.000564354
0.000560899
0.00055738
0.000553799
0.000550159
0.000546463
0.000542714
0.000538915
0.000535068
0.000531177
0.000527244
0.000523272
0.000519264
0.000515224
0.000511153
0.000507057
0.000502936
0.000498795
0.000494637
0.000490464
0.000486279
0.000482085
0.000477886
0.000473683
0.000469481
0.000465282
0.000461089
0.000456904
0.000452731
0.00044857
0.000444426
0.000440301
0.000436198
0.000432118
0.000428063
0.000424033
0.000420029
0.000416054
0.000412107
0.000408191
0.000404307
0.000400456
0.000396638
0.000392854
0.000389106
0.000385394
0.000381719
0.000378081
0.00037448
0.000370913
0.000367383
0.000363889
0.000360433
0.000357012
0.000353624
0.00035027
0.000346947
0.000343657
0.000340392
0.000337153
0.000333942
0.000330756
0.000327589
0.000324437
0.000321296
0.000318167
0.000315039
0.000311902
0.000308738
0.000305535
0.000302262
0.000298895
0.000295446
0.000291947
0.000285738
2.78445e-07
1.69371e-05
4.80705e-05
7.7296e-05
0.000101866
0.000122349
0.000139605
0.000154384
0.000167405
0.000179198
0.000190169
0.000200631
0.000210836
0.000220944
0.000231045
0.000241157
0.000251293
0.000261449
0.000271626
0.000281811
0.000291962
0.000302064
0.000312103
0.000322067
0.000331947
0.000341734
0.000351422
0.000361008
0.00037049
0.000379867
0.000389141
0.000398311
0.00040738
0.000416348
0.000425218
0.000433988
0.000442658
0.000451229
0.000459696
0.000468058
0.000476311
0.00048445
0.000492471
0.000500366
0.000508129
0.000515754
0.000523233
0.000530558
0.000537721
0.000544714
0.000551529
0.000558159
0.000564596
0.000570832
0.000576862
0.000582677
0.000588273
0.000593645
0.000598786
0.000603694
0.000608365
0.000612795
0.000616983
0.000620931
0.000624634
0.000628092
0.000631307
0.000634275
0.000636993
0.00063947
0.000641686
0.000643664
0.000645408
0.000646921
0.000648208
0.000649273
0.000650121
0.000650757
0.000651186
0.000651414
0.000651446
0.000651287
0.000650944
0.000650422
0.000649726
0.000648863
0.000647837
0.000646654
0.000645319
0.000643838
0.000642217
0.000640459
0.000638569
0.000636554
0.000634417
0.000632163
0.000629795
0.000627319
0.000624737
0.000622054
0.000619273
0.000616398
0.000613433
0.000610379
0.000607242
0.000604022
0.000600724
0.000597351
0.000593904
0.000590388
0.000586804
0.000583156
0.000579447
0.000575679
0.000571856
0.000567981
0.000564056
0.000560085
0.000556071
0.000552018
0.000547929
0.000543807
0.000539656
0.000535479
0.00053128
0.000527061
0.000522826
0.000518579
0.000514323
0.000510061
0.000505796
0.000501533
0.000497273
0.00049302
0.000488777
0.000484546
0.000480329
0.000476131
0.000471954
0.000467799
0.000463668
0.000459563
0.000455486
0.000451439
0.000447424
0.000443441
0.00043949
0.000435574
0.000431692
0.000427845
0.000424036
0.000420264
0.000416529
0.000412832
0.000409173
0.000405551
0.000401966
0.000398419
0.00039491
0.000391436
0.000387996
0.00038459
0.000381216
0.000377872
0.000374555
0.000371264
0.000367999
0.00036475
0.000361511
0.000358283
0.000355062
0.000351839
0.000348603
0.000345341
0.000342038
0.000338667
0.000335199
0.00033162
0.000327956
0.000322012
2.87312e-07
1.72193e-05
4.89e-05
7.93321e-05
0.000105479
0.000127598
0.000146523
0.000162849
0.000177218
0.000190214
0.000202285
0.000213752
0.000224797
0.000235562
0.000246147
0.000256616
0.000266999
0.000277327
0.000287636
0.00029786
0.00030798
0.000317994
0.0003279
0.000337695
0.00034738
0.000356953
0.000366417
0.000375775
0.000385032
0.000394192
0.000403261
0.000412243
0.000421144
0.000429967
0.000438715
0.00044739
0.000455993
0.000464521
0.000472974
0.000481347
0.000489637
0.000497837
0.000505942
0.000513944
0.000521835
0.000529607
0.000537251
0.000544758
0.000552119
0.000559324
0.000566366
0.000573235
0.000579923
0.000586421
0.000592722
0.000598819
0.000604705
0.000610375
0.000615822
0.000621043
0.000626033
0.000630789
0.000635308
0.00063959
0.00064363
0.000647432
0.000650999
0.000654321
0.000657399
0.000660233
0.000662803
0.000665138
0.000667241
0.000669115
0.000670764
0.000672192
0.000673404
0.000674403
0.000675195
0.000675786
0.000676179
0.000676382
0.000676398
0.000676233
0.000675893
0.000675383
0.000674708
0.000673873
0.000672883
0.000671743
0.000670458
0.000669033
0.000667472
0.000665779
0.000663959
0.000662015
0.000659952
0.000657773
0.000655482
0.000653082
0.000650576
0.000647967
0.000645259
0.000642454
0.000639555
0.000636564
0.000633486
0.000630321
0.000627074
0.000623746
0.00062034
0.00061686
0.000613307
0.000609686
0.000605999
0.000602249
0.000598439
0.000594574
0.000590655
0.000586688
0.000582676
0.000578621
0.000574529
0.000570402
0.000566244
0.00056206
0.000557852
0.000553626
0.000549383
0.000545128
0.000540865
0.000536598
0.000532329
0.000528062
0.000523801
0.000519548
0.000515307
0.00051108
0.000506871
0.000502682
0.000498515
0.000494372
0.000490255
0.000486167
0.000482108
0.000478081
0.000474087
0.000470127
0.000466202
0.000462315
0.000458465
0.000454652
0.000450878
0.000447142
0.000443444
0.000439784
0.000436163
0.00043258
0.000429035
0.000425527
0.000422054
0.000418617
0.000415213
0.000411839
0.000408495
0.000405178
0.000401886
0.000398613
0.000395355
0.000392106
0.000388865
0.000385616
0.000382352
0.000379064
0.000375735
0.00037234
0.000368852
0.000365245
0.000361514
0.000355895
2.89091e-07
1.72317e-05
4.90229e-05
8.02388e-05
0.000107595
0.000131003
0.000151242
0.000168897
0.000184603
0.000198806
0.000211881
0.000224128
0.000235778
0.000246992
0.000257883
0.000268539
0.000279042
0.000289428
0.000299644
0.000309685
0.000319557
0.000329278
0.000338855
0.000348297
0.000357614
0.000366814
0.00037591
0.00038491
0.000393828
0.000402671
0.000411451
0.000420175
0.00042885
0.000437482
0.000446073
0.000454625
0.000463137
0.000471609
0.000480036
0.000488413
0.000496734
0.000504992
0.000513178
0.000521283
0.000529297
0.000537211
0.000545014
0.000552696
0.000560246
0.000567654
0.00057491
0.000582005
0.000588928
0.000595672
0.000602227
0.000608587
0.000614744
0.000620691
0.000626423
0.000631935
0.000637222
0.000642281
0.000647109
0.000651703
0.000656058
0.000660194
0.00066409
0.000667744
0.00067117
0.000674333
0.000677242
0.000679921
0.00068237
0.000684593
0.000686595
0.000688377
0.000689945
0.000691302
0.000692454
0.000693406
0.000694161
0.000694726
0.000695106
0.000695305
0.000695328
0.000695181
0.000694868
0.000694395
0.000693765
0.000692984
0.000692056
0.000690985
0.000689774
0.000688429
0.000686953
0.000685349
0.000683621
0.000681772
0.000679805
0.000677723
0.000675529
0.000673225
0.000670813
0.000668298
0.00066568
0.000662963
0.000660148
0.000657238
0.000654236
0.000651144
0.000647965
0.000644701
0.000641355
0.000637931
0.00063443
0.000630857
0.000627215
0.000623507
0.000619737
0.000615909
0.000612026
0.000608092
0.000604112