/*--------------------------------*- C++ -*----------------------------------*\
  =========                 |
  \\      /  F ield         | OpenFOAM: The Open Source CFD Toolbox
   \\    /   O peration     | Website:  https://openfoam.org
    \\  /    A nd           | Version:  6
     \\/     M anipulation  |
\*---------------------------------------------------------------------------*/
FoamFile
{
    version     2.0;
    format      ascii;
    class       volScalarField;
    location    "200";
    object      p;
}
// * * * * * * * * * * * * * * * * * * * * * * * * * * * * * * * * * * * * * //

dimensions      [0 2 -2 0 0 0 0];

internalField   nonuniform List<scalar> 
12225
(
-0.0585151
-0.0439338
-0.0219156
-0.00497612
0.00662244
0.01445
0.019703
0.0231262
0.0252363
0.0263857
0.026807
0.0266472
0.0259841
0.0248179
0.023045
0.0202833
0.0156294
0.00557294
-0.0992408
-0.0492465
-0.0252939
-0.0078202
0.00419323
0.0123604
0.0178981
0.0215532
0.0238515
0.0251526
0.0256942
0.0256266
0.0250287
0.023899
0.0221359
0.0193862
0.0150459
0.00715288
-0.128146
-0.0575037
-0.0315645
-0.0129868
-0.000229959
0.00853008
0.0145667
0.0186322
0.0212673
0.0228427
0.0236052
0.0237117
0.0232458
0.0222119
0.0205311
0.0179408
0.0142529
0.00902827
-0.137641
-0.0650484
-0.0380097
-0.0183433
-0.00488989
0.00442212
0.0109312
0.0153971
0.0183701
0.0202288
0.0212273
0.0215301
0.0212309
0.0203533
0.0188669
0.0166486
0.0138215
0.0106251
-0.135814
-0.0705621
-0.0430965
-0.0227986
-0.00889223
0.000808373
0.00766508
0.01244
0.0156852
0.0177816
0.0189878
0.0194762
0.0193536
0.0186712
0.0174549
0.0157072
0.0137048
0.011793
-0.127743
-0.0737537
-0.0466357
-0.026292
-0.0122057
-0.00227717
0.00481163
0.00981189
0.0132685
0.01556
0.0169472
0.0176096
0.0176684
0.017203
0.0162877
0.0150095
0.0136943
0.0125968
-0.115687
-0.0744038
-0.0486316
-0.0288402
-0.014864
-0.00486935
0.00234421
0.00749478
0.0111099
0.0135604
0.0151065
0.0159337
0.016176
0.0159373
0.0153258
0.0144755
0.0137037
0.0131305
-0.101202
-0.0724298
-0.0490495
-0.0303725
-0.0168201
-0.00693981
0.000283436
0.00550635
0.00922624
0.0117996
0.0134823
0.0144629
0.0148856
0.0148717
0.0145493
0.0140709
0.0137147
0.0134725
-0.0854984
-0.0679966
-0.0478822
-0.0308143
-0.0180107
-0.0084444
-0.00133792
0.00387318
0.00764061
0.0102983
0.0120928
0.0132118
0.0138052
0.0140041
0.013944
0.0137765
0.0137284
0.0136896
-0.0694065
-0.0614808
-0.0451874
-0.030132
-0.0183902
-0.00934756
-0.00249233
0.00261711
0.00637104
0.00907174
0.0109504
0.012189
0.0129375
0.0133293
0.0134973
0.013581
0.0137553
0.0138379
-0.0534007
-0.0533775
-0.0411306
-0.0283638
-0.0179525
-0.00963487
-0.00316575
0.00175028
0.00542772
0.00812819
0.0100609
0.0113965
0.0122796
0.0128389
0.0131983
0.0134793
0.013813
0.0139629
-0.0390211
-0.0449448
-0.0364084
-0.0258626
-0.016848
-0.00935389
-0.00335173
0.00130796
0.00485966
0.00752075
0.00947454
0.0108765
0.0118611
0.0125483
0.0130498
0.0134697
0.0139108
0.0140885
-0.0257435
-0.0357812
-0.0309703
-0.0226393
-0.0150988
-0.00855835
-0.00312563
0.00120483
0.00457749
0.00716006
0.00910545
0.0105492
0.0116119
0.012401
0.0130142
0.013539
0.0140411
0.0142652
-0.0117896
-0.0249317
-0.0241384
-0.0182733
-0.012424
-0.00707265
-0.00239052
0.00148834
0.00459897
0.0070475
0.00894814
0.0104099
0.011533
0.0124079
0.0131157
0.0137255
0.0142705
0.0145514
0.00241207
-0.0129307
-0.0160363
-0.0127849
-0.00875414
-0.00477079
-0.00101163
0.00228723
0.00504443
0.00729354
0.00910325
0.0105486
0.0117041
0.012639
0.0134159
0.0140861
0.0146618
0.0149979
0.0159961
-0.000736964
-0.00721842
-0.00651449
-0.00426817
-0.00169008
0.00105268
0.00368111
0.00601204
0.00800345
0.00967471
0.0110643
0.0122174
0.0131802
0.0139961
0.0147007
0.015296
0.0156869
0.027504
0.0100828
0.00109461
-0.000348113
0.0003909
0.0017567
0.0035695
0.00555776
0.00746962
0.009196
0.0107126
0.0120252
0.0131525
0.0141197
0.0149537
0.0156773
0.0162935
0.0167567
0.0342637
0.0169618
0.00673851
0.00404413
0.00392598
0.00459996
0.00585026
0.00743797
0.00908623
0.0106448
0.0120611
0.0133213
0.0144275
0.0153911
0.0162281
0.0169541
0.0175795
0.0181013
0.0317278
0.015476
0.0058924
0.00368741
0.00405921
0.00515105
0.00673118
0.00858841
0.0104618
0.0122071
0.0137778
0.0151661
0.016379
0.0174317
0.0183433
0.0191339
0.0198314
0.0204824
0.021717
0.00548207
-0.00216291
-0.00224698
-0.000244247
0.00215362
0.00478325
0.00743793
0.00990458
0.0120944
0.0140004
0.0156404
0.0170415
0.0182325
0.0192431
0.0200996
0.0208401
0.0215282
0.00469675
-0.00940356
-0.0131678
-0.00991565
-0.00546423
-0.00117345
0.00288596
0.00656358
0.00974869
0.0124462
0.01471
0.016601
0.0181758
0.019487
0.020579
0.0214912
0.022269
0.022997
-0.0167362
-0.0265679
-0.0248136
-0.0175168
-0.0102593
-0.00391926
0.00157254
0.00620257
0.0100153
0.0131262
0.015659
0.0177203
0.0193988
0.0207683
0.0218879
0.0228059
0.0235719
0.0242717
-0.0409115
-0.0436394
-0.0350223
-0.0234793
-0.0134856
-0.00530571
0.00135392
0.00669945
0.0109499
0.0143251
0.0170098
0.01915
0.0208614
0.0222336
0.0233379
0.0242283
0.0249571
0.0256084
-0.0665101
-0.0584162
-0.0422498
-0.0268795
-0.014626
-0.00508166
0.00234588
0.00811071
0.0125831
0.0160621
0.0187782
0.0209059
0.0225783
0.0238971
0.02494
0.0257664
0.0264269
0.0270019
-0.0918598
-0.0688126
-0.0456201
-0.0274357
-0.0136619
-0.00333199
0.00445441
0.0103595
0.014856
0.0182941
0.0209335
0.0229665
0.0245364
0.0257514
0.0266928
0.0274225
0.0279889
0.0284665
-0.114672
-0.0732791
-0.0449878
-0.0253299
-0.0108447
-0.000275724
0.0075157
0.0133253
0.017679
0.0209536
0.0234243
0.0252918
0.0267039
0.0277709
0.0285753
0.0291793
0.0296292
0.0299906
-0.131132
-0.0712942
-0.0406115
-0.020826
-0.00640924
0.00393218
0.0114343
0.0169435
0.0210044
0.0240028
0.0262183
0.0278531
0.0290543
0.029931
0.0305643
0.031015
0.0313265
0.031554
-0.132838
-0.0632956
-0.033018
-0.0141473
-0.000485437
0.00922959
0.0161747
0.0211834
0.0248002
0.027407
0.0292783
0.0306108
0.0315464
0.0321895
0.0326168
0.032886
0.0330373
0.033116
-0.106742
-0.0515308
-0.0243131
-0.00673719
0.00583644
0.0147251
0.0209736
0.0253815
0.0284856
0.0306551
0.0321518
0.0331624
0.0338203
0.0342227
0.0344407
0.034527
0.0345194
0.0344575
-0.0588117
-0.0426958
-0.0189473
-0.00216917
0.00970056
0.018059
0.0238634
0.0278925
0.0306776
0.0325775
0.0338451
0.03466
0.0351499
0.0354072
0.0354992
0.0354758
0.0353728
0.0352312
0.00227471
0.00227641
0.00221126
0.00208109
0.00191487
0.00172996
0.00153196
0.00132308
0.00110347
0.000871424
0.000625202
0.000363771
8.6849e-05
-0.000205771
-0.000513732
-0.000836617
-0.00117326
-0.00152229
-0.00188116
-0.00224703
-0.00261545
-0.0029815
-0.00333816
-0.00367818
-0.00399221
-0.00427117
-0.00450421
-0.00468169
-0.00479248
-0.00482741
-0.00477612
-0.00463082
-0.0043827
-0.00402598
-0.00355412
-0.00296382
-0.00225039
-0.00141188
-0.000444911
0.000649734
0.00187022
0.00320939
0.00466251
0.00622856
0.00791559
0.00972529
0.0116516
0.0136845
0.0158169
0.0180403
0.020348
0.022732
0.0251851
0.027699
0.0302663
0.0328785
0.0355278
0.0382058
0.0409047
0.0436162
0.0463327
0.0490465
0.05175
0.0544363
0.0570984
0.05973
0.0623247
0.0648769
0.0673811
0.0698327
0.0722268
0.0745598
0.0768276
0.0790276
0.0811565
0.0832126
0.0851934
0.0870979
0.0889244
0.0906728
0.0923421
0.0939326
0.0954441
0.0968778
0.0982351
0.0995199
0.100733
0.101875
0.102946
0.103946
0.104878
0.105744
0.106545
0.107284
0.107963
0.108584
0.10915
0.109663
0.110125
0.110538
0.110906
0.11123
0.111512
0.111754
0.111959
0.112129
0.112265
0.11237
0.112445
0.112493
0.112515
0.112512
0.112487
0.112441
0.112375
0.112291
0.112189
0.112072
0.11194
0.111794
0.111637
0.111467
0.111287
0.111098
0.110899
0.110693
0.110479
0.110259
0.110032
0.109801
0.109564
0.109323
0.109078
0.108829
0.108578
0.108323
0.108066
0.107807
0.107546
0.107284
0.107021
0.106756
0.106491
0.106224
0.105956
0.105686
0.105417
0.105146
0.104875
0.104604
0.104333
0.104061
0.10379
0.103518
0.103246
0.102974
0.102702
0.10243
0.102158
0.101886
0.101615
0.101345
0.101075
0.100807
0.100541
0.100277
0.100017
0.0997611
0.0995117
0.0992707
0.099041
0.0988265
0.0986328
0.0984672
0.098342
0.0982701
0.098286
0.098408
0.0988128
0.0991418
0.00249172
0.00245666
0.00237688
0.0022607
0.0021269
0.00199066
0.00185392
0.00170911
0.00154903
0.00137035
0.00117229
0.000953127
0.000711719
0.000447334
0.000159935
-0.000150532
-0.000483153
-0.000836907
-0.00120936
-0.00159741
-0.00199562
-0.00239793
-0.00279602
-0.00318131
-0.00354324
-0.00387183
-0.00415559
-0.0043843
-0.00454664
-0.00463327
-0.0046341
-0.00454139
-0.00434679
-0.0040446
-0.00362868
-0.00309559
-0.00244123
-0.00166397
-0.000761365
0.000266623
0.00142094
0.0027009
0.00410743
0.00563829
0.00728739
0.00904646
0.0109122
0.0128805
0.0149468
0.0171047
0.0193482
0.02167
0.0240634
0.0265205
0.0290339
0.0315956
0.0341979
0.0368327
0.0394922
0.0421683
0.0448535
0.0475399
0.0502203
0.0528875
0.0555347
0.0581556
0.0607439
0.0632936
0.065799
0.0682554
0.070658
0.0730027
0.0752856
0.0775036
0.0796536
0.0817332
0.08374
0.0856728
0.0875297
0.0893101
0.0910131
0.0926389
0.0941874
0.0956592
0.097053
0.0983674
0.0996046
0.100769
0.101863
0.102887
0.103845
0.104737
0.105565
0.106331
0.107038
0.107688
0.108282
0.108823
0.109313
0.109755
0.11015
0.110501
0.11081
0.11108
0.111311
0.111506
0.111668
0.111797
0.111896
0.111968
0.112012
0.112032
0.112028
0.112002
0.111956
0.111891
0.111808
0.111709
0.111594
0.111466
0.111324
0.11117
0.111005
0.11083
0.110645
0.110451
0.11025
0.110042
0.109827
0.109606
0.10938
0.109148
0.108913
0.108673
0.10843
0.108184
0.107934
0.107683
0.107429
0.107173
0.106916
0.106657
0.106396
0.106134
0.105871
0.105607
0.105342
0.105075
0.104809
0.104541
0.104274
0.104006
0.103737
0.103468
0.103199
0.10293
0.10266
0.10239
0.102121
0.101851
0.101582
0.101314
0.101046
0.10078
0.100516
0.100254
0.0999952
0.0997413
0.0994937
0.0992546
0.0990269
0.0988146
0.0986233
0.0984604
0.0983378
0.0982685
0.098286
0.0983991
0.0987808
0.0990266
0.00309362
0.00297367
0.00278211
0.00259208
0.00245402
0.00236087
0.00228586
0.00220651
0.00210794
0.00198108
0.00182112
0.00162547
0.00139315
0.00112395
0.000818881
0.000479611
0.000109178
-0.000288801
-0.000708846
-0.00114469
-0.00158861
-0.00203289
-0.00246839
-0.0028862
-0.00327615
-0.00362888
-0.00393406
-0.00418261
-0.00436473
-0.00447221
-0.00449633
-0.00443021
-0.00426653
-0.00399995
-0.00362481
-0.00313747
-0.00253402
-0.00181261
-0.000971206
-9.62002e-06
0.00107305
0.00227693
0.0036029
0.00504925
0.00661243
0.00828699
0.0100687
0.0119527
0.0139346
0.0160086
0.018169
0.0204091
0.0227226
0.0251021
0.0275406
0.0300304
0.032564
0.0351337
0.0377319
0.0403508
0.0429828
0.0456206
0.0482568
0.0508842
0.0534961
0.0560864
0.0586486
0.0611768
0.0636654
0.0661094
0.068504
0.0708449
0.0731281
0.0753503
0.0775081
0.0795992
0.0816209
0.0835714
0.0854491
0.0872529
0.0889818
0.0906358
0.0922149
0.0937198
0.0951508
0.0965082
0.0977927
0.099006
0.100149
0.101224
0.102231
0.103173
0.104051
0.104866
0.105622
0.10632
0.106962
0.10755
0.108086
0.108574
0.109013
0.109408
0.10976
0.110071
0.110342
0.110577
0.110777
0.110944
0.11108
0.111186
0.111264
0.111317
0.111345
0.111349
0.111333
0.111296
0.111241
0.111168
0.111079
0.110975
0.110857
0.110725
0.110582
0.110427
0.110262
0.110087
0.109904
0.109713
0.109515
0.10931
0.109098
0.108881
0.108659
0.108433
0.108202
0.107968
0.10773
0.107488
0.107245
0.106998
0.10675
0.106499
0.106247
0.105993
0.105737
0.105479
0.105221
0.104961
0.1047
0.104438
0.104176
0.103913
0.103649
0.103384
0.10312
0.102854
0.102588
0.102322
0.102056
0.10179
0.101524
0.101259
0.100994
0.10073
0.100469
0.100209
0.0999531
0.0997016
0.0994564
0.0992196
0.0989942
0.098784
0.0985946
0.0984332
0.0983107
0.0982396
0.0982494
0.0983326
0.0986446
0.0987549
0.00394666
0.00373619
0.00338945
0.00305753
0.00283342
0.00269141
0.00258712
0.00248934
0.00237717
0.00223642
0.00205867
0.00183944
0.00157733
0.0012727
0.000927794
0.000545834
0.00013166
-0.000309227
-0.000769898
-0.00124324
-0.00172092
-0.00219484
-0.00265585
-0.00309536
-0.00350379
-0.00387246
-0.00419186
-0.00445371
-0.00464905
-0.00477041
-0.00480975
-0.00476073
-0.00461652
-0.00437209
-0.00402199
-0.00356258
-0.00298987
-0.0023017
-0.00149574
-0.000571383
0.000472306
0.00163496
0.00291638
0.00431453
0.0058268
0.00744915
0.00917792
0.0110086
0.0129368
0.014957
0.017064
0.0192513
0.0215128
0.0238415
0.0262305
0.0286725
0.0311602
0.0336861
0.0362426
0.0388223
0.0414177
0.0440215
0.0466263
0.0492253
0.0518118
0.0543797
0.0569224
0.059434
0.0619089
0.0643423
0.0667293
0.0690655
0.0713469
0.0735699
0.0757314
0.0778284
0.0798587
0.08182
0.0837109
0.0855302
0.0872772
0.0889516
0.0905533
0.0920828
0.0935406
0.0949273
0.0962435
0.0974898
0.0986669
0.0997762
0.100819
0.101797
0.102711
0.103563
0.104355
0.10509
0.105768
0.106393
0.106966
0.107489
0.107964
0.108394
0.108781
0.109125
0.109431
0.109698
0.10993
0.110129
0.110295
0.110431
0.110539
0.11062
0.110675
0.110707
0.110717
0.110706
0.110675
0.110626
0.110559
0.110477
0.11038
0.11027
0.110146
0.11001
0.109864
0.109707
0.109541
0.109366
0.109184
0.108993
0.108797
0.108594
0.108385
0.108171
0.107952
0.107729
0.107503
0.107272
0.107038
0.106802
0.106562
0.10632
0.106076
0.105829
0.105581
0.105331
0.105079
0.104826
0.104571
0.104315
0.104058
0.103801
0.103542
0.103282
0.103022
0.102761
0.102499
0.102237
0.101975
0.101712
0.101449
0.101187
0.100925
0.100665
0.100405
0.100148
0.0998946
0.0996452
0.0994018
0.0991665
0.098942
0.0987321
0.0985419
0.098378
0.0982497
0.0981682
0.0981557
0.0981938
0.0984093
0.0983732
0.0047712
0.00448138
0.00396969
0.00346706
0.00311273
0.00286965
0.0026816
0.00251189
0.00233622
0.00213749
0.00190511
0.00163325
0.00132008
0.00096612
0.000574178
0.000148169
-0.000306375
-0.000783407
-0.00127556
-0.00177548
-0.00227478
-0.00276549
-0.00323871
-0.00368631
-0.00409932
-0.00446975
-0.00478886
-0.00504912
-0.00524232
-0.00536168
-0.0053998
-0.00535082
-0.00520839
-0.00496777
-0.00462381
-0.00417299
-0.00361144
-0.00293696
-0.00214708
-0.00124095
-0.000217483
0.000922871
0.00217976
0.00355124
0.00503526
0.0066284
0.00832737
0.0101278
0.0120255
0.014015
0.0160912
0.018248
0.0204792
0.0227781
0.0251379
0.0275515
0.0300117
0.0325112
0.0350424
0.0375981
0.0401709
0.0427536
0.0453389
0.0479201
0.0504907
0.0530444
0.0555747
0.0580756
0.0605418
0.0629684
0.0653505
0.0676838
0.069964
0.0721878
0.0743517
0.0764529
0.0784892
0.0804585
0.0823595
0.0841907
0.0859514
0.0876408
0.0892587
0.0908053
0.0922811
0.0936866
0.0950226
0.0962895
0.0974881
0.0986198
0.0996858
0.100687
0.101626
0.102503
0.10332
0.10408
0.104785
0.105435
0.106034
0.106583
0.107085
0.10754
0.107952
0.108323
0.108653
0.108946
0.109202
0.109425
0.109615
0.109774
0.109905
0.110008
0.110086
0.110139
0.11017
0.110179
0.110168
0.110138
0.110091
0.110027
0.109948
0.109854
0.109747
0.109627
0.109496
0.109355
0.109203
0.109042
0.108873
0.108696
0.108511
0.10832
0.108123
0.10792
0.107712
0.1075
0.107283
0.107062
0.106837
0.106609
0.106377
0.106143
0.105906
0.105667
0.105426
0.105182
0.104936
0.104689
0.10444
0.10419
0.103938
0.103685
0.103431
0.103176
0.10292
0.102663
0.102406
0.102147
0.101888
0.101629
0.10137
0.10111
0.100851
0.100593
0.100336
0.100081
0.0998292
0.0995812
0.0993387
0.0991037
0.0988787
0.0986671
0.0984733
0.0983032
0.0981641
0.0980646
0.0980204
0.0980062
0.0981206
0.0979558
0.00532549
0.00497499
0.00432899
0.00367687
0.00319391
0.00283984
0.00255325
0.00229524
0.00203997
0.00176892
0.00147033
0.00113761
0.000768599
0.000363776
-7.38599e-05
-0.000540154
-0.00102934
-0.00153529
-0.00205067
-0.00256832
-0.00308017
-0.00357867
-0.00405543
-0.00450286
-0.00491258
-0.00527726
-0.00558878
-0.00584024
-0.00602402
-0.00613387
-0.00616283
-0.00610546
-0.0059557
-0.00570906
-0.00536053
-0.00490673
-0.00434387
-0.00366977
-0.00288195
-0.0019795
-0.000961272
0.000172312
0.00142094
0.0027828
0.00425604
0.00583752
0.00752408
0.00931153
0.0111956
0.0131712
0.015233
0.017375
0.0195913
0.0218751
0.0242197
0.0266182
0.0290634
0.0315479
0.0340647
0.0366062
0.0391653
0.0417348
0.0443077
0.0468773
0.0494372
0.0519809
0.0545021
0.056995
0.0594543
0.0618751
0.0642525
0.0665821
0.06886
0.0710825
0.0732465
0.0753495
0.0773889
0.0793629
0.0812697
0.0831082
0.0848772
0.0865761
0.0882046
0.0897628
0.0912508
0.0926693
0.0940187
0.0952998
0.0965134
0.0976606
0.098743
0.0997614
0.100717
0.101613
0.102449
0.103228
0.103951
0.104621
0.10524
0.105809
0.10633
0.106806
0.107238
0.107628
0.107978
0.10829
0.108567
0.108809
0.109018
0.109196
0.109346
0.109467
0.109563
0.109634
0.109682
0.109707
0.109713
0.109699
0.109668
0.109619
0.109555
0.109476
0.109383
0.109277
0.109159
0.109031
0.108891
0.108743
0.108585
0.108419
0.108246
0.108065
0.107878
0.107685
0.107487
0.107283
0.107075
0.106862
0.106646
0.106425
0.106201
0.105974
0.105744
0.105511
0.105276
0.105038
0.104799
0.104557
0.104313
0.104068
0.103821
0.103573
0.103323
0.103072
0.10282
0.102567
0.102313
0.102058
0.101802
0.101546
0.10129
0.101033
0.100776
0.10052
0.100265
0.100012
0.0997613
0.099514
0.0992716
0.0990358
0.0988089
0.0985939
0.0983944
0.0982151
0.0980616
0.097939
0.0978584
0.0977895
0.0978092
0.0975368
0.00546539
0.00507902
0.00435101
0.0035952
0.00300899
0.00255652
0.00217717
0.00183357
0.00150034
0.00115887
0.000797102
0.000408075
-1.06735e-05
-0.000458947
-0.000933913
-0.00143154
-0.00194616
-0.00247188
-0.00300167
-0.00352875
-0.00404546
-0.00454473
-0.00501868
-0.00546024
-0.00586155
-0.00621577
-0.00651527
-0.00675361
-0.00692356
-0.00701922
-0.00703397
-0.0069626
-0.00679928
-0.00653968
-0.00617893
-0.00571373
-0.00514035
-0.00445665
-0.00366016
-0.00275
-0.00172507
-0.000585805
0.000667474
0.002033
0.00350898
0.00509238
0.00678008
0.00856793
0.0104517
0.0124262
0.0144861
0.0166257
0.0188387
0.0211186
0.0234587
0.025852
0.0282915
0.0307699
0.0332801
0.0358147
0.0383666
0.0409288
0.0434943
0.0460566
0.0486092
0.0511457
0.0536599
0.0561462
0.0585993
0.0610144
0.0633865
0.0657115
0.0679856
0.0702053
0.0723675
0.0744695
0.076509
0.0784838
0.0803925
0.0822336
0.0840063
0.0857098
0.0873439
0.0889084
0.0904035
0.0918297
0.0931876
0.0944777
0.0957009
0.0968585
0.0979518
0.0989819
0.0999501
0.100858
0.101707
0.1025
0.103238
0.103922
0.104555
0.105139
0.105676
0.106167
0.106615
0.10702
0.107386
0.107714
0.108006
0.108264
0.108489
0.108682
0.108847
0.108984
0.109094
0.10918
0.109242
0.109282
0.109302
0.109302
0.109284
0.109248
0.109197
0.10913
0.10905
0.108956
0.10885
0.108732
0.108604
0.108466
0.108319
0.108163
0.107999
0.107828
0.10765
0.107466
0.107276
0.10708
0.10688
0.106675
0.106465
0.106252
0.106035
0.105814
0.10559
0.105364
0.105134
0.104902
0.104667
0.104431
0.104192
0.103951
0.103709
0.103465
0.103219
0.102972
0.102724
0.102474
0.102223
0.101972
0.101719
0.101466
0.101211
0.100957
0.100703
0.100448
0.100195
0.0999429
0.0996928
0.0994456
0.0992025
0.098965
0.0987351
0.0985152
0.0983081
0.0981173
0.0979467
0.0977982
0.0976788
0.0975556
0.0974899
0.0971287
0.00515214
0.00475779
0.00400341
0.00319748
0.00254523
0.00202082
0.0015688
0.00115539
0.000757513
0.000357609
-5.59961e-05
-0.000490303
-0.000947866
-0.00142866
-0.00193013
-0.00244869
-0.00297903
-0.00351567
-0.00405191
-0.00458135
-0.00509672
-0.00559142
-0.00605801
-0.00648983
-0.00687941
-0.00722022
-0.00750496
-0.00772743
-0.00788069
-0.00795903
-0.00795603
-0.00786664
-0.00768519
-0.00740745
-0.00702867
-0.00654564
-0.00595472
-0.00525382
-0.00444054
-0.00351408
-0.00247342
-0.00131903
-5.13098e-05
0.00132792
0.00281683
0.00441235
0.00611131
0.00790953
0.00980268
0.0117856
0.0138529
0.0159987
0.0182169
0.0205009
0.022844
0.0252392
0.0276795
0.0301577
0.0326667
0.0351994
0.0377485
0.0403072
0.0428686
0.0454262
0.0479736
0.0505044
0.0530127
0.055493
0.0579401
0.0603493
0.0627159
0.0650356
0.0673048
0.0695201
0.0716784
0.073777
0.0758136
0.0777863
0.0796935
0.0815339
0.0833065
0.0850107
0.0866462
0.0882128
0.0897108
0.0911404
0.0925023
0.0937971
0.0950256
0.0961892
0.0972891
0.0983264
0.0993024
0.100219
0.101077
0.101879
0.102626
0.103321
0.103965
0.10456
0.105108
0.105611
0.10607
0.106488
0.106866
0.107206
0.107511
0.107781
0.108018
0.108224
0.108401
0.10855
0.108673
0.108771
0.108845
0.108898
0.108929
0.108941
0.108934
0.10891
0.108869
0.108814
0.108744
0.10866
0.108564
0.108457
0.108338
0.10821
0.108071
0.107925
0.107769
0.107607
0.107437
0.107261
0.107078
0.10689
0.106697
0.106499
0.106296
0.106089
0.105878
0.105663
0.105445
0.105224
0.105
0.104773
0.104543
0.104311
0.104077
0.103841
0.103603
0.103363
0.103121
0.102877
0.102632
0.102386
0.102138
0.101889
0.101639
0.101388
0.101136
0.100884
0.100631
0.100379
0.100126
0.099875
0.0996251
0.0993773
0.0991329
0.0988929
0.0986589
0.0984328
0.0982167
0.0980128
0.0978232
0.0976474
0.0974886
0.0973134
0.0971716
0.096738
0.00442648
0.0040482
0.00331558
0.00251002
0.00183163
0.00126711
0.000769118
0.000308304
-0.000135176
-0.000576866
-0.00102715
-0.00149255
-0.00197572
-0.00247701
-0.00299408
-0.00352361
-0.00406069
-0.00460025
-0.00513603
-0.00566199
-0.0061712
-0.00665736
-0.00711331
-0.00753267
-0.00790817
-0.00823349
-0.00850152
-0.00870618
-0.00884069
-0.00889942
-0.00887608
-0.00876571
-0.0085627
-0.00826293
-0.00786172
-0.00735596
-0.00674208
-0.00601812
-0.00518178
-0.00423239
-0.00316907
-0.0019924
-0.000702921
0.000697422
0.00220668
0.00382166
0.0055391
0.00735468
0.00926399
0.0112618
0.0133426
0.0155005
0.0177293
0.0200224
0.0223731
0.0247744
0.0272194
0.0297009
0.0322117
0.0347449
0.0372934
0.0398503
0.0424088
0.0449625
0.047505
0.0500303
0.0525328
0.055007
0.0574478
0.0598504
0.0622101
0.0645231
0.0667856
0.0689944
0.0711465
0.0732393
0.0752705
0.0772383
0.0791411
0.0809777
0.0827471
0.0844487
0.0860822
0.0876475
0.0891448
0.0905744
0.0919368
0.0932327
0.094463
0.095629
0.096732
0.097773
0.0987532
0.0996744
0.100538
0.101346
0.1021
0.102802
0.103453
0.104056
0.104612
0.105124
0.105592
0.106019
0.106406
0.106756
0.10707
0.10735
0.107597
0.107814
0.108001
0.10816
0.108293
0.108401
0.108486
0.108548
0.10859
0.108611
0.108614
0.1086
0.108569
0.108523
0.108462
0.108388
0.108301
0.108202
0.108092
0.107972
0.107842
0.107703
0.107556
0.107401
0.107238
0.107069
0.106893
0.106712
0.106525
0.106333
0.106137
0.105936
0.105731
0.105522
0.105309
0.105093
0.104873
0.104651
0.104426
0.104199
0.103969
0.103736
0.103502
0.103266
0.103027
0.102787
0.102545
0.102302
0.102057
0.101811
0.101563
0.101315
0.101065
0.100815
0.100563
0.100312
0.10006
0.0998093
0.099559
0.0993103
0.0990638
0.0988206
0.0985817
0.0983485
0.0981222
0.097904
0.0976944
0.0974909
0.0972935
0.0970697
0.0968603
0.096368
0.00337245
0.00302829
0.00235424
0.00159112
0.000923417
0.000349808
-0.000167115
-0.000651481
-0.00111931
-0.00158391
-0.00205444
-0.0025366
-0.00303251
-0.0035425
-0.00406462
-0.00459597
-0.00513191
-0.00566766
-0.00619722
-0.00671491
-0.00721403
-0.0076885
-0.00813129
-0.00853611
-0.0088958
-0.00920411
-0.00945394
-0.00963929
-0.00975337
-0.0097906
-0.00974472
-0.00961078
-0.00938327
-0.00905812
-0.00863074
-0.00809814
-0.00745687
-0.0067051
-0.00584076
-0.00486336
-0.00377217
-0.00256797
-0.0012515
0.000175111
0.00170974
0.00334904
0.00508957
0.00692688
0.00885641
0.0108728
0.0129705
0.0151436
0.0173857
0.0196903
0.0220507
0.0244598
0.0269107
0.0293963
0.0319095
0.0344434
0.036991
0.0395458
0.0421009
0.04465
0.0471869
0.0497059
0.0522014
0.0546679
0.0571007
0.0594947
0.0618456
0.0641496
0.0664031
0.068603
0.0707465
0.0728308
0.074854
0.0768142
0.0787098
0.0805398
0.0823031
0.0839992
0.0856278
0.0871888
0.0886824
0.0901089
0.0914688
0.092763
0.0939921
0.0951576
0.0962607
0.0973025
0.0982843
0.0992075
0.100074
0.100885
0.101643
0.102349
0.103006
0.103614
0.104176
0.104693
0.105168
0.105601
0.105996
0.106353
0.106675
0.106963
0.107218
0.107443
0.107638
0.107806
0.107948
0.108064
0.108157
0.108228
0.108278
0.108309
0.10832
0.108314
0.108292
0.108254
0.108201
0.108135
0.108056
0.107965
0.107863
0.10775
0.107628
0.107496
0.107356
0.107208
0.107052
0.106889
0.10672
0.106545
0.106364
0.106178
0.105987
0.105792
0.105592
0.105388
0.10518
0.104969
0.104754
0.104536
0.104316
0.104092
0.103866
0.103638
0.103407
0.103174
0.102939
0.102702
0.102464
0.102223
0.101981
0.101737
0.101492
0.101245
0.100997
0.100749
0.100499
0.100248
0.0999972
0.0997461
0.0994952
0.0992451
0.0989961
0.0987491
0.0985047
0.0982636
0.0980265
0.0977932
0.0975632
0.0973323
0.0970981
0.0968292
0.0965604
0.0960208
0.0020911
0.00179339
0.00120335
0.000514291
-0.000112054
-0.000666665
-0.00117669
-0.00166144
-0.00213351
-0.00260331
-0.00307807
-0.00356275
-0.00405922
-0.00456769
-0.00508606
-0.00561151
-0.00613959
-0.0066658
-0.00718441
-0.00768999
-0.00817594
-0.0086362
-0.00906373
-0.00945222
-0.00979445
-0.0100841
-0.0103141
-0.0104784
-0.0105701
-0.0105836
-0.0105127
-0.0103524
-0.0100974
-0.00974357
-0.00928656
-0.00872344
-0.00805098
-0.00726759
-0.00637147
-0.00536229
-0.00423957
-0.00300434
-0.00165757
-0.000201599
0.00136123
0.00302737
0.00479318
0.00665405
0.00860527
0.0106414
0.0127567
0.0149451
0.0172004
0.0195159
0.021885
0.0243008
0.0267563
0.0292446
0.0317586
0.0342916
0.0368366
0.0393871
0.0419366
0.0444788
0.047008
0.0495182
0.0520041
0.0544605
0.0568824
0.0592651
0.0616043
0.0638966
0.0661384
0.0683267
0.0704587
0.0725319
0.0745442
0.076494
0.0783797
0.0802002
0.0819546
0.0836424
0.0852634
0.0868174
0.0883046
0.0897255
0.0910804
0.0923703
0.0935958
0.0947583
0.0958592
0.0968995
0.0978803
0.0988034
0.0996703
0.100483
0.101242
0.101951
0.10261
0.103221
0.103787
0.104308
0.104787
0.105226
0.105626
0.105989
0.106317
0.106611
0.106873
0.107104
0.107307
0.107482
0.10763
0.107754
0.107855
0.107933
0.107991
0.108028
0.108048
0.108049
0.108034
0.108003
0.107958
0.107899
0.107827
0.107743
0.107648
0.107542
0.107427
0.107302
0.107168
0.107026
0.106877
0.10672
0.106557
0.106388
0.106212
0.106032
0.105846
0.105656
0.105461
0.105262
0.105059
0.104852
0.104642
0.104428
0.104211
0.103992
0.10377
0.103545
0.103318
0.103088
0.102856
0.102622
0.102386
0.102148
0.101909
0.101667
0.101424
0.10118
0.100934
0.100686
0.100437
0.100188
0.099937
0.0996857
0.0994339
0.0991819
0.0989302
0.098679
0.0984286
0.0981792
0.0979307
0.0976822
0.097432
0.0971745
0.0969057
0.0965958
0.0962748
0.0956967
0.000683454
0.000440252
-4.90627e-05
-0.00064101
-0.0012009
-0.00171298
-0.00219466
-0.00265964
-0.00311728
-0.00357581
-0.00404089
-0.00451624
-0.00500288
-0.00550063
-0.00600724
-0.00651996
-0.00703447
-0.00754652
-0.00805044
-0.00854076
-0.00901077
-0.00945434
-0.00986429
-0.0102342
-0.0105567
-0.0108254
-0.0110331
-0.0111737
-0.0112401
-0.0112269
-0.0111279
-0.010938
-0.0106521
-0.0102662
-0.00977608
-0.00917908
-0.00847224
-0.00765432
-0.00672372
-0.00568038
-0.00452411
-0.00325624
-0.00187801
-0.000392068
0.00119902
0.00289153
0.0046817
0.0065648
0.00853601
0.0105897
0.0127204
0.0149217
0.0171874
0.019511
0.0218858
0.024305
0.0267618
0.0292492
0.0317605
0.0342888
0.0368276
0.0393702
0.0419103
0.0444422
0.0469599
0.0494577
0.0519304
0.054373
0.0567805
0.0591482
0.0614724
0.0637496
0.0659765
0.06815
0.0702674
0.0723264
0.0743249
0.0762613
0.0781342
0.0799425
0.0816854
0.0833624
0.0849731
0.0865177
0.0879962
0.089409
0.0907567
0.09204
0.0932598
0.0944173
0.0955139
0.0965507
0.0975287
0.0984497
0.0993152
0.100127
0.100886
0.101595
0.102255
0.102869
0.103436
0.103961
0.104443
0.104885
0.105289
0.105657
0.105989
0.106288
0.106556
0.106793
0.107001
0.107181
0.107336
0.107466
0.107573
0.107658
0.107722
0.107767
0.107792
0.107801
0.107792
0.107768
0.10773
0.107677
0.107612
0.107535
0.107446
0.107347
0.107237
0.107118
0.106991
0.106855
0.106711
0.10656
0.106402
0.106239
0.106069
0.105893
0.105713
0.105527
0.105337
0.105142
0.104944
0.104741
0.104535
0.104326
0.104113
0.103897
0.103678
0.103457
0.103233
0.103007
0.102778
0.102547
0.102313
0.102078
0.101841
0.101602
0.101361
0.101118
0.100873
0.100627
0.100379
0.10013
0.0998797
0.099628
0.0993751
0.0991212
0.0988663
0.0986107
0.098354
0.0980962
0.0978362
0.0975726
0.0973026
0.0970199
0.096719
0.096372
0.0960052
0.095396
-0.000754488
-0.000940752
-0.00132264
-0.00180388
-0.00227898
-0.00272845
-0.003162
-0.00358923
-0.00401665
-0.00444993
-0.00489272
-0.00534752
-0.00581454
-0.00629313
-0.0067808
-0.00727485
-0.00777095
-0.00826469
-0.00875014
-0.0092216
-0.00967219
-0.0100956
-0.0104845
-0.0108322
-0.0111314
-0.0113754
-0.0115568
-0.0116696
-0.0117068
-0.0116629
-0.0115317
-0.0113085
-0.0109882
-0.0105671
-0.0100413
-0.00940833
-0.00866563
-0.00781219
-0.00684663
-0.00576922
-0.00458005
-0.00328074
-0.0018728
-0.00035906
0.00125771
0.00297359
0.0047847
0.0066862
0.00867321
0.0107401
0.0128813
0.0150905
0.0173616
0.0196881
0.0220633
0.0244805
0.0269332
0.0294144
0.0319175
0.0344358
0.0369629
0.0394924
0.0420184
0.0445349
0.0470363
0.0495169
0.0519718
0.0543961
0.0567846
0.0591331
0.0614383
0.0636967
0.0659048
0.06806
0.0701594
0.0722009
0.0741825
0.0761026
0.0779598
0.0797532
0.0814819
0.0831454
0.0847436
0.0862763
0.0877438
0.0891465
0.090485
0.0917598
0.092972
0.0941228
0.0952134
0.096245
0.0972187
0.098136
0.0989987
0.0998082
0.100566
0.101274
0.101934
0.102548
0.103116
0.103642
0.104127
0.104572
0.104979
0.105349
0.105686
0.105989
0.10626
0.106502
0.106715
0.106901
0.107061
0.107197
0.107309
0.1074
0.10747
0.10752
0.107552
0.107566
0.107564
0.107546
0.107514
0.107467
0.107408
0.107337
0.107254
0.107161
0.107057
0.106944
0.106822
0.106692
0.106553
0.106408
0.106256
0.106097
0.105932
0.105761
0.105585
0.105405
0.105219
0.105029
0.104834
0.104636
0.104434
0.104228
0.104019
0.103807
0.103592
0.103374
0.103153
0.102929
0.102703
0.102475
0.102245
0.102012
0.101777
0.10154
0.1013
0.101059
0.100816
0.100571
0.100324
0.100076
0.0998253
0.099573
0.0993189
0.0990628
0.0988048
0.0985445
0.0982815
0.0980151
0.0977438
0.0974655
0.0971765
0.0968701
0.0965398
0.0961595
0.0957526
0.0951181
-0.00214817
-0.00227828
-0.00255123
-0.00291341
-0.0032902
-0.00366179
-0.00403161
-0.00440545
-0.00478745
-0.00518137
-0.00558923
-0.00601223
-0.00644979
-0.0069008
-0.0073624
-0.00783147
-0.00830325
-0.00877295
-0.0092343
-0.00968137
-0.0101071
-0.010505
-0.0108675
-0.0111879
-0.0114584
-0.0116726
-0.011823
-0.0119034
-0.011907
-0.0118284
-0.0116617
-0.0114022
-0.0110452
-0.0105871
-0.0100244
-0.00935517
-0.00857705