/*--------------------------------*- C++ -*----------------------------------*\
  =========                 |
  \\      /  F ield         | OpenFOAM: The Open Source CFD Toolbox
   \\    /   O peration     | Website:  https://openfoam.org
    \\  /    A nd           | Version:  6
     \\/     M anipulation  |
\*---------------------------------------------------------------------------*/
FoamFile
{
    version     2.0;
    format      ascii;
    class       surfaceScalarField;
    location    "200";
    object      phi;
}
// * * * * * * * * * * * * * * * * * * * * * * * * * * * * * * * * * * * * * //

dimensions      [0 3 -1 0 0 0 0];

internalField   nonuniform List<scalar> 
24170
(
2.01639e-08
-1.22095e-08
3.07863e-08
-1.06225e-08
3.94772e-08
-8.69095e-09
4.68748e-08
-7.39773e-09
5.31088e-08
-6.23403e-09
5.82176e-08
-5.10889e-09
6.23905e-08
-4.17293e-09
6.58139e-08
-3.42349e-09
6.86481e-08
-2.83419e-09
7.10259e-08
-2.37797e-09
7.30613e-08
-2.03537e-09
7.48591e-08
-1.79795e-09
7.65315e-08
-1.67244e-09
7.82251e-08
-1.6937e-09
8.01872e-08
-1.96219e-09
8.29912e-08
-2.80407e-09
8.809e-08
-5.09897e-09
-1.3929e-08
1.02019e-07
4.02761e-08
-2.66404e-08
5.50468e-08
-2.53933e-08
6.73488e-08
-2.0993e-08
7.79451e-08
-1.79942e-08
8.69666e-08
-1.52556e-08
9.46295e-08
-1.27719e-08
1.01147e-07
-1.06902e-08
1.06718e-07
-8.99496e-09
1.11518e-07
-7.63481e-09
1.15699e-07
-6.55813e-09
1.1939e-07
-5.72723e-09
1.22717e-07
-5.12461e-09
1.25805e-07
-4.76085e-09
1.28808e-07
-4.69733e-09
1.31945e-07
-5.09889e-09
1.35563e-07
-6.42176e-09
1.4011e-07
-9.6465e-09
-1.74693e-08
1.4365e-07
5.88393e-08
-3.84342e-08
7.39587e-08
-4.05127e-08
8.76012e-08
-3.46355e-08
9.92666e-08
-2.96597e-08
1.09245e-07
-2.52342e-08
1.17828e-07
-2.13543e-08
1.2523e-07
-1.80921e-08
1.31643e-07
-1.54088e-08
1.37239e-07
-1.32303e-08
1.42165e-07
-1.14842e-08
1.46554e-07
-1.01163e-08
1.50529e-07
-9.09949e-09
1.54211e-07
-8.44313e-09
1.57732e-07
-8.21824e-09
1.61238e-07
-8.60454e-09
1.6484e-07
-1.00245e-08
1.68366e-07
-1.31726e-08
-1.90932e-08
1.6999e-07
8.05904e-08
-4.70576e-08
9.43669e-08
-5.42893e-08
1.08038e-07
-4.83068e-08
1.20016e-07
-4.16381e-08
1.30393e-07
-3.5611e-08
1.39415e-07
-3.03758e-08
1.47275e-07
-2.59529e-08
1.5415e-07
-2.22836e-08
1.60196e-07
-1.92767e-08
1.65555e-07
-1.68434e-08
1.70355e-07
-1.49157e-08
1.74711e-07
-1.34559e-08
1.78735e-07
-1.24667e-08
1.82529e-07
-1.20127e-08
1.86175e-07
-1.22503e-08
1.89645e-07
-1.34945e-08
1.92596e-07
-1.61238e-08
-2.03372e-08
1.9384e-07
1.06471e-07
-5.24815e-08
1.18168e-07
-6.59868e-08
1.30988e-07
-6.11263e-08
1.42733e-07
-5.33834e-08
1.53128e-07
-4.60056e-08
1.62284e-07
-3.95316e-08
1.70344e-07
-3.40135e-08
1.77454e-07
-2.93938e-08
1.83752e-07
-2.55746e-08
1.89366e-07
-2.24573e-08
1.94413e-07
-1.99629e-08
1.99e-07
-1.80429e-08
2.03222e-07
-1.66885e-08
2.07155e-07
-1.5945e-08
2.10828e-07
-1.59237e-08
2.1415e-07
-1.68166e-08
2.16784e-07
-1.87576e-08
-2.15622e-08
2.18009e-07
1.37182e-07
-5.49195e-08
1.46349e-07
-7.51537e-08
1.57652e-07
-7.24299e-08
1.68659e-07
-6.43897e-08
1.78702e-07
-5.60494e-08
1.87705e-07
-4.85345e-08
1.95728e-07
-4.20368e-08
2.02872e-07
-3.65375e-08
2.09246e-07
-3.19489e-08
2.1496e-07
-2.81711e-08
2.20116e-07
-2.51187e-08
2.24806e-07
-2.2733e-08
2.29108e-07
-2.09902e-08
2.33071e-07
-1.99088e-08
2.36694e-07
-1.95469e-08
2.39864e-07
-1.99866e-08
2.42308e-07
-2.12009e-08
-2.28691e-08
2.43615e-07
1.73376e-07
-5.47673e-08
1.79712e-07
-8.14901e-08
1.88965e-07
-8.16824e-08
1.98738e-07
-7.41625e-08
2.0804e-07
-6.53521e-08
2.1658e-07
-5.70745e-08
2.24311e-07
-4.97674e-08
2.31272e-07
-4.34987e-08
2.37537e-07
-3.82132e-08
2.43187e-07
-3.38217e-08
2.48306e-07
-3.02379e-08
2.52968e-07
-2.7395e-08
2.57231e-07
-2.52533e-08
2.61124e-07
-2.38018e-08
2.64625e-07
-2.30476e-08
2.67626e-07
-2.2988e-08
2.6993e-07
-2.35046e-08
-2.42648e-08
2.71326e-07
2.15627e-07
-5.25255e-08
2.18986e-07
-8.48486e-08
2.25769e-07
-8.84657e-08
2.33834e-07
-8.22277e-08
2.41982e-07
-7.35001e-08
2.49716e-07
-6.48088e-08
2.56867e-07
-5.69188e-08
2.63402e-07
-5.00337e-08
2.69346e-07
-4.41571e-08
2.74749e-07
-3.92245e-08
2.79668e-07
-3.51568e-08
2.84156e-07
-3.18828e-08
2.88251e-07
-2.93482e-08
2.91964e-07
-2.75148e-08
2.95263e-07
-2.63471e-08
2.98059e-07
-2.57843e-08
3.00222e-07
-2.56676e-08
-2.57053e-08
3.01663e-07
2.64427e-07
-4.87338e-08
2.64834e-07
-8.52553e-08
2.68852e-07
-9.2484e-08
2.74777e-07
-8.8152e-08
2.81346e-07
-8.0069e-08
2.87902e-07
-7.1365e-08
2.94153e-07
-6.31704e-08
2.99985e-07
-5.58654e-08
3.05367e-07
-4.95387e-08
3.10309e-07
-4.41668e-08
3.14839e-07
-3.96867e-08
3.18985e-07
-3.60288e-08
3.22765e-07
-3.3128e-08
3.26174e-07
-3.09245e-08
3.29179e-07
-2.93519e-08
3.3171e-07
-2.83152e-08
3.3369e-07
-2.76476e-08
-2.71127e-08
3.35097e-07
3.20177e-07
-4.39246e-08
3.17833e-07
-8.29116e-08
3.18926e-07
-9.35774e-08
3.22347e-07
-9.15724e-08
3.26926e-07
-8.46487e-08
3.31916e-07
-7.63549e-08
3.36919e-07
-6.81732e-08
3.41738e-07
-6.06843e-08
3.46283e-07
-5.40843e-08
3.50522e-07
-4.84054e-08
3.54447e-07
-4.36115e-08
3.58059e-07
-3.96411e-08
3.61356e-07
-3.64249e-08
3.6432e-07
-3.38891e-08
3.66917e-07
-3.19487e-08
3.69096e-07
-3.04936e-08
3.70815e-07
-2.93671e-08
-2.83845e-08
3.72087e-07
3.83154e-07
-3.85761e-08
3.78413e-07
-7.81698e-08
3.76575e-07
-9.17402e-08
3.77231e-07
-9.2228e-08
3.79456e-07
-8.68735e-08
3.82496e-07
-7.93957e-08
3.85886e-07
-7.15629e-08
3.89358e-07
-6.41564e-08
3.92766e-07
-5.74917e-08
3.96029e-07
-5.16688e-08
3.99105e-07
-4.66877e-08
4.01967e-07
-4.25032e-08
4.04591e-07
-3.90488e-08
4.06948e-07
-3.62458e-08
4.09001e-07
-3.40017e-08
4.10712e-07
-3.22052e-08
4.12064e-07
-3.07185e-08
-2.93982e-08
4.13077e-07
3.77898e-07
-3.37839e-08
3.72455e-07
-7.27266e-08
3.68755e-07
-8.80407e-08
3.67075e-07
-9.0548e-08
3.6692e-07
-8.67184e-08
3.67719e-07
-8.01943e-08
3.69063e-07
-7.29073e-08
3.70694e-07
-6.57869e-08
3.72449e-07
-5.92468e-08
3.74229e-07
-5.34486e-08
3.75969e-07
-4.84283e-08
3.77626e-07
-4.41598e-08
3.79162e-07
-4.0585e-08
3.80544e-07
-3.76274e-08
3.81738e-07
-3.51958e-08
3.82717e-07
-3.31846e-08
3.8347e-07
-3.14716e-08
-2.9954e-08
3.84026e-07
4.99946e-07
-2.84536e-08
4.92359e-07
-6.51401e-08
4.85926e-07
-8.16072e-08
4.81478e-07
-8.61009e-08
4.78834e-07
-8.40742e-08
4.77505e-07
-7.88647e-08
4.77057e-07
-7.24593e-08
4.77179e-07
-6.59093e-08
4.77658e-07
-5.97262e-08
4.78349e-07
-5.41393e-08
4.79149e-07
-4.92287e-08
4.79984e-07
-4.49949e-08
4.80794e-07
-4.13949e-08
4.81529e-07
-3.83615e-08
4.82145e-07
-3.58117e-08
4.82612e-07
-3.36518e-08
4.82921e-07
-3.17806e-08
-3.01227e-08
4.8309e-07
6.62107e-07
-2.28137e-08
6.52305e-07
-5.53382e-08
6.42599e-07
-7.19006e-08
6.34475e-07
-7.79774e-08
6.28224e-07
-7.78228e-08
6.23594e-07
-7.42352e-08
6.20216e-07
-6.90809e-08
6.17766e-07
-6.3459e-08
6.15993e-07
-5.79534e-08
6.14708e-07
-5.28545e-08
6.13767e-07
-4.82884e-08
6.1306e-07
-4.42876e-08
6.12497e-07
-4.08315e-08
6.12005e-07
-3.78694e-08
6.11527e-07
-3.53335e-08
6.11022e-07
-3.31475e-08
6.10476e-07
-3.12338e-08
-2.95355e-08
6.09888e-07
8.74729e-07
-1.70761e-08
8.62921e-07
-4.35304e-08
8.49655e-07
-5.8635e-08
8.37086e-07
-6.54083e-08
8.26087e-07
-6.68235e-08
8.16816e-07
-6.49639e-08
8.09104e-07
-6.13689e-08
8.027e-07
-5.70556e-08
7.97363e-07
-5.26162e-08
7.92881e-07
-4.83724e-08
7.89077e-07
-4.44841e-08
7.85803e-07
-4.10142e-08
7.82939e-07
-3.79671e-08
7.80384e-07
-3.53141e-08
7.78058e-07
-3.30082e-08
7.75905e-07
-3.09945e-08
7.7389e-07
-2.92182e-08
-2.76386e-08
7.71993e-07
1.1473e-06
-1.13383e-08
1.13383e-06
-3.00615e-08
1.11704e-06
-4.18486e-08
1.0996e-06
-4.79651e-08
1.08295e-06
-5.01784e-08
1.06778e-06
-4.97961e-08
1.05428e-06
-4.78656e-08
1.04239e-06
-4.51628e-08
1.03195e-06
-4.21835e-08
1.0228e-06
-3.92187e-08
1.01474e-06
-3.64279e-08
1.00762e-06
-3.38869e-08
1.00127e-06
-3.16193e-08
9.95573e-07
-2.9617e-08
9.9042e-07
-2.78551e-08
9.85726e-07
-2.63007e-08
9.81429e-07
-2.49212e-08
-2.36905e-08
9.77481e-07
1.48366e-06
-5.45281e-09
1.46869e-06
-1.50932e-08
1.44855e-06
-2.17102e-08
1.42616e-06
-2.55748e-08
1.40344e-06
-2.74555e-08
1.38157e-06
-2.79285e-08
1.36118e-06
-2.74787e-08
1.34253e-06
-2.6509e-08
1.32565e-06
-2.52998e-08
1.31045e-06
-2.40253e-08
1.29681e-06
-2.2787e-08
1.28456e-06
-2.16385e-08
1.27355e-06
-2.06015e-08
1.26361e-06
-1.96779e-08
1.25461e-06
-1.88589e-08
1.24644e-06
-1.81308e-08
1.239e-06
-1.74795e-08
-1.68945e-08
1.2322e-06
1.87155e-06
1.06713e-09
1.85471e-06
1.745e-09
1.83105e-06
1.94925e-09
1.80368e-06
1.80242e-09
1.77487e-06
1.35097e-09
1.74623e-06
7.08084e-10
1.71879e-06
-3.20793e-11
1.69309e-06
-8.14172e-10
1.66939e-06
-1.60359e-09
1.64775e-06
-2.37673e-09
1.62808e-06
-3.11795e-09
1.61025e-06
-3.81708e-09
1.59412e-06
-4.46732e-09
1.57951e-06
-5.0641e-09
1.56625e-06
-5.60462e-09
1.55421e-06
-6.08817e-09
1.54325e-06
-6.51645e-09
-6.89148e-09
1.53324e-06
2.26211e-06
7.70896e-09
2.24226e-06
2.15971e-08
2.21379e-06
3.04227e-08
2.18079e-06
3.47931e-08
2.14614e-06
3.60035e-08
2.11176e-06
3.50916e-08
2.07885e-06
3.28753e-08
2.04807e-06
2.99682e-08
2.01969e-06
2.67799e-08
1.99375e-06
2.35632e-08
1.97016e-06
2.04663e-08
1.94877e-06
1.75704e-08
1.92939e-06
1.49135e-08
1.91182e-06
1.25076e-08
1.89587e-06
1.03491e-08
1.88135e-06
8.42522e-09
1.86812e-06
6.71785e-09
5.20322e-09
1.85602e-06
1.55413e-06
1.55435e-08
1.53645e-06
3.92735e-08
1.51398e-06
5.2894e-08
1.49004e-06
5.87304e-08
1.46657e-06
5.94736e-08
1.44457e-06
5.70899e-08
1.42446e-06
5.29881e-08
1.40631e-06
4.81171e-08
1.39004e-06
4.30534e-08
1.37548e-06
3.81212e-08
1.36245e-06
3.3492e-08
1.35078e-06
2.92448e-08
1.34029e-06
2.54048e-08
1.33083e-06
2.1966e-08
1.32227e-06
1.8906e-08
1.3145e-06
1.61943e-08
1.30742e-06
1.37974e-08
1.16791e-08
1.30095e-06
1.23267e-06
2.37606e-08
1.2157e-06
5.6241e-08
1.19653e-06
7.20604e-08
1.17825e-06
7.70162e-08
1.162e-06
7.57199e-08
1.14802e-06
7.10689e-08
1.13612e-06
6.48898e-08
1.12598e-06
5.82572e-08
1.11729e-06
5.17437e-08
1.10978e-06
4.56314e-08
1.10323e-06
4.00426e-08
1.09746e-06
3.50128e-08
1.09233e-06
3.05302e-08
1.08774e-06
2.65598e-08
1.08359e-06
2.30564e-08
1.07981e-06
1.9972e-08
1.07635e-06
1.72597e-08
1.48726e-08
1.07316e-06
9.49402e-07
3.27178e-08
9.34608e-07
7.1035e-08
9.20875e-07
8.57936e-08
9.1002e-07
8.78711e-08
9.02039e-07
8.37006e-08
8.96364e-07
7.67431e-08
8.92362e-07
6.88923e-08
8.89518e-07
6.1101e-08
8.87461e-07
5.38006e-08
8.85931e-07
4.71609e-08
8.8475e-07
4.12234e-08
8.83797e-07
3.59663e-08
8.82988e-07
3.13387e-08
8.82269e-07
2.72788e-08
8.81603e-07
2.37229e-08
8.80964e-07
2.06106e-08
8.80337e-07
1.78868e-08
1.54993e-08
8.7971e-07
7.11918e-07
4.17448e-08
7.01386e-07
8.15673e-08
6.94837e-07
9.23421e-08
6.9213e-07
9.05784e-08
6.9214e-07
8.36898e-08
6.93789e-07
7.5094e-08
6.96297e-07
6.63843e-08
6.99175e-07
5.82235e-08
7.0213e-07
5.08452e-08
7.04995e-07
4.42961e-08
7.07677e-07
3.85413e-08
7.1013e-07
3.35124e-08
7.12339e-07
2.91303e-08
7.14301e-07
2.53162e-08
7.16027e-07
2.19969e-08
7.17531e-07
1.91066e-08
7.1883e-07
1.65884e-08
1.43896e-08
7.19939e-07
5.20135e-07
4.94812e-08
5.15836e-07
8.58662e-08
5.17159e-07
9.10192e-08
5.22019e-07
8.57181e-08
5.28638e-07
7.70708e-08
5.35848e-07
6.78846e-08
5.43001e-07
5.92306e-08
5.49779e-07
5.14462e-08
5.56034e-07
4.45899e-08
5.61715e-07
3.86147e-08
5.66822e-07
3.34349e-08
5.71379e-07
2.89555e-08
5.75424e-07
2.50843e-08
5.79003e-07
2.17375e-08
5.82159e-07
1.88409e-08
5.84935e-07
1.63302e-08
5.87372e-07
1.41516e-08
1.22567e-08
5.89505e-07
3.70075e-07
5.42196e-08
3.73128e-07
8.28134e-08
3.81742e-07
8.24053e-08
3.92605e-07
7.48544e-08
4.03887e-07
6.57894e-08
4.14691e-07
5.70807e-08
4.24659e-07
4.92624e-08
4.33683e-07
4.24226e-08
4.41762e-07
3.65102e-08
4.48949e-07
3.14283e-08
4.55314e-07
2.70698e-08
4.60936e-07
2.33328e-08
4.65895e-07
2.01258e-08
4.70263e-07
1.73696e-08
4.74107e-07
1.49961e-08
4.7749e-07
1.29475e-08
4.80465e-07
1.11767e-08
9.64321e-09
4.83078e-07
2.55926e-07
5.43532e-08
2.66251e-07
7.24881e-08
2.80605e-07
6.80512e-08
2.95454e-07
6.00062e-08
3.09406e-07
5.18374e-08
3.22038e-07
4.44478e-08
3.33303e-07
3.79983e-08
3.43268e-07
3.24574e-08
3.52045e-07
2.7733e-08
3.59757e-07
2.37164e-08
3.66524e-07
2.03023e-08
3.7246e-07
1.73969e-08
3.77666e-07
1.49197e-08
3.82233e-07
1.28027e-08
3.86241e-07
1.09887e-08
3.89759e-07
9.42954e-09
3.92848e-07
8.08689e-09
6.93049e-09
3.95561e-07
1.71333e-07
4.87304e-08
1.87739e-07
5.60824e-08
2.0571e-07
5.00803e-08
2.225e-07
4.32167e-08
2.37409e-07
3.69285e-08
2.50486e-07
3.13706e-08
2.61912e-07
2.65716e-08
2.71873e-07
2.24967e-08
2.80546e-07
1.90602e-08
2.88096e-07
1.61666e-08
2.9467e-07
1.37276e-08
3.004e-07
1.16676e-08
3.05396e-07
9.92286e-09
3.09758e-07
8.44085e-09
3.13569e-07
7.17807e-09
3.16901e-07
6.09776e-09
3.19817e-07
5.17066e-09
4.37809e-09
3.22369e-07
1.10199e-07
3.68178e-08
1.30546e-07
3.5735e-08
1.49679e-07
3.09471e-08
1.6657e-07
2.63257e-08
1.81099e-07
2.23997e-08
1.93605e-07
1.88643e-08
2.0438e-07
1.57971e-08
2.13661e-07
1.32161e-08
2.21658e-07
1.10627e-08
2.28557e-07
9.26775e-09
2.34515e-07
7.76928e-09
2.39668e-07
6.51487e-09
2.44129e-07
5.46133e-09
2.47997e-07
4.57355e-09
2.51352e-07
3.82296e-09
2.54265e-07
3.18507e-09
2.56797e-07
2.63859e-09
2.17607e-09
2.58998e-07
6.69177e-08
1.88918e-08
8.76482e-08
1.50046e-08
1.05215e-07
1.33798e-08
1.20527e-07
1.10144e-08
1.33549e-07
9.37697e-09
1.44621e-07
7.79312e-09
1.54026e-07
6.3917e-09
1.62015e-07
5.22704e-09
1.68808e-07
4.26982e-09
1.74592e-07
3.48354e-09
1.79525e-07
2.83682e-09
1.83736e-07
2.30344e-09
1.87336e-07
1.86193e-09
1.90414e-07
1.49535e-09
1.93047e-07
1.19003e-09
1.95298e-07
9.34297e-10
1.97221e-07
7.15273e-10
5.29141e-10
1.98867e-07
3.26842e-08
4.76888e-08
6.10686e-08
7.2083e-08
8.14599e-08
8.92531e-08
9.56448e-08
1.00872e-07
1.05142e-07
1.08625e-07
1.11462e-07
1.13765e-07
1.15627e-07
1.17123e-07
1.18313e-07
1.19247e-07
1.19962e-07
1.20491e-07
2.20552e-09
-2.20474e-09
5.77985e-09
-3.57312e-09
8.83457e-09
-3.05333e-09
1.0637e-08
-1.8015e-09
1.10342e-08
-3.95895e-10
1.01545e-08
8.80491e-10
8.2455e-09
1.91042e-09
5.54726e-09
2.69884e-09
2.23805e-09
3.31063e-09
-1.58991e-09
3.82827e-09
-5.91748e-09
4.32889e-09
-1.07604e-08
4.84288e-09
-1.61315e-08
5.37235e-09
-2.20496e-08
5.91768e-09
-2.85164e-08
6.46802e-09
-3.55241e-08
7.00716e-09
-4.30394e-08
7.51666e-09
-5.1019e-08
7.97878e-09
-5.93955e-08
8.3778e-09
-6.80983e-08
8.70159e-09
-7.70387e-08
8.94171e-09
-8.6134e-08
9.09349e-09
-9.5289e-08
9.15594e-09
-1.04423e-07
9.13147e-09
-1.13447e-07
9.02515e-09
-1.22293e-07
8.84361e-09
-1.30886e-07
8.59449e-09
-1.39175e-07
8.28624e-09
-1.47101e-07
7.92743e-09
-1.5463e-07
7.52638e-09
-1.61719e-07
7.09094e-09
-1.68349e-07
6.62802e-09
-1.74491e-07
6.14396e-09
-1.80136e-07
5.64396e-09
-1.85266e-07
5.13249e-09
-1.8988e-07
4.61282e-09
-1.93964e-07
4.08776e-09
-1.97524e-07
3.55916e-09
-2.00551e-07
3.02881e-09
-2.03049e-07
2.49761e-09
-2.05013e-07
1.9662e-09
-2.06448e-07
1.43403e-09
-2.07347e-07
9.01502e-10
-2.07721e-07
3.73156e-10
-2.07583e-07
-1.34973e-10
-2.0698e-07
-6.04442e-10
-2.05941e-07
-1.03623e-09
-2.04498e-07
-1.44298e-09
-2.02665e-07
-1.83025e-09
-2.00464e-07
-2.20143e-09
-1.97904e-07
-2.55762e-09
-1.95004e-07
-2.89965e-09
-1.91775e-07
-3.22733e-09
-1.88233e-07
-3.54076e-09
-1.84391e-07
-3.83952e-09
-1.80266e-07
-4.12359e-09
-1.75871e-07
-4.39255e-09
-1.71222e-07
-4.64636e-09
-1.66335e-07
-4.8847e-09
-1.61224e-07
-5.10758e-09
-1.55906e-07
-5.31482e-09
-1.50397e-07
-5.50649e-09
-1.44712e-07
-5.68257e-09
-1.38865e-07
-5.84319e-09
-1.32874e-07
-5.98854e-09
-1.26752e-07
-6.1188e-09
-1.20516e-07
-6.23413e-09
-1.14179e-07
-6.33438e-09
-1.07757e-07
-6.41989e-09
-1.01264e-07
-6.49091e-09
-9.47146e-08
-6.54812e-09
-8.81201e-08
-6.59173e-09
-8.14968e-08
-6.62232e-09
-7.48534e-08
-6.64015e-09
-6.8206e-08
-6.64594e-09
-6.1562e-08
-6.63991e-09
-5.49368e-08
-6.62285e-09
-4.83372e-08
-6.59513e-09
-4.17776e-08
-6.55763e-09
-3.52626e-08
-6.51052e-09
-2.88062e-08
-6.45462e-09
-2.24118e-08
-6.39037e-09
-1.60921e-08
-6.3187e-09
-9.85103e-09
-6.2375e-09
-3.70942e-09
-6.14082e-09
2.33416e-09
-6.04079e-09
8.28609e-09
-5.95216e-09
1.41427e-08
-5.85674e-09
1.98867e-08
-5.7468e-09
2.5512e-08
-5.62918e-09
3.10161e-08
-5.5065e-09
3.63953e-08
-5.37953e-09
4.16452e-08
-5.24909e-09
4.67623e-08
-5.11568e-09
5.1744e-08
-4.98e-09
5.65882e-08
-4.8424e-09
6.12936e-08
-4.70342e-09
6.5859e-08
-4.56328e-09
7.02836e-08
-4.42249e-09
7.45672e-08
-4.28119e-09
7.87096e-08
-4.13991e-09
8.27114e-08
-3.99874e-09
8.65727e-08
-3.8582e-09
9.02946e-08
-3.71821e-09
9.38773e-08
-3.57936e-09
9.73221e-08
-3.44146e-09
1.0063e-07
-3.30514e-09
1.03802e-07
-3.17016e-09
1.06841e-07
-3.03711e-09
1.09748e-07
-2.90569e-09
1.12526e-07
-2.77643e-09
1.15175e-07
-2.64902e-09
1.177e-07
-2.52396e-09
1.20101e-07
-2.40091e-09
1.22381e-07
-2.28032e-09
1.24543e-07
-2.16188e-09
1.26589e-07
-2.0461e-09
1.28521e-07
-1.93273e-09
1.30343e-07
-1.82222e-09
1.32056e-07
-1.71432e-09
1.33665e-07
-1.60925e-09
1.35172e-07
-1.50674e-09
1.36579e-07
-1.40704e-09
1.3789e-07
-1.30991e-09
1.39106e-07
-1.21569e-09
1.4023e-07
-1.1241e-09
1.41265e-07
-1.03542e-09
1.42215e-07
-9.4937e-10
1.4308e-07
-8.66239e-10
1.43866e-07
-7.85709e-10
1.44573e-07
-7.08036e-10
1.45205e-07
-6.32986e-10
1.45765e-07
-5.6085e-10
1.46256e-07
-4.9141e-10
1.4668e-07
-4.24858e-10
1.4704e-07
-3.60957e-10
1.47339e-07
-2.99879e-10
1.4758e-07
-2.41237e-10
1.47763e-07
-1.85082e-10
1.47893e-07
-1.31032e-10
1.4797e-07
-7.87789e-11
1.47995e-07
-2.66732e-11
1.47968e-07
2.60489e-11
1.4789e-07
7.68335e-11
1.47766e-07
1.23238e-10
1.47599e-07
1.65481e-10
1.47394e-07
2.04334e-10
1.47153e-07
2.40456e-10
1.46879e-07
2.74161e-10
1.46572e-07
3.058e-10
1.46236e-07
3.35681e-10
1.45872e-07
3.64064e-10
1.4548e-07
3.90949e-10
1.45063e-07
4.16445e-10
1.44622e-07
4.4065e-10
1.44158e-07
4.63791e-10
1.43672e-07
4.86011e-10
1.43164e-07
5.07446e-10
1.42635e-07
5.28227e-10
1.42086e-07
5.48642e-10
1.41517e-07
5.6904e-10
1.40927e-07
5.89888e-10
1.40314e-07
6.11694e-10
1.39679e-07
6.35114e-10
1.39018e-07
6.60909e-10
1.38328e-07
6.90064e-10
1.37604e-07
7.23884e-10
1.36839e-07
7.64213e-10
1.36025e-07
8.13562e-10
1.3515e-07
8.75453e-10
1.34195e-07
9.54829e-10
1.33136e-07
1.05883e-09
1.31938e-07
1.19796e-09
1.30549e-07
1.38919e-09
1.28891e-07
1.65788e-09
1.26837e-07
2.05458e-09
1.24163e-07
2.67393e-09
1.20441e-07
3.72206e-09
1.14975e-07
5.4662e-09
9.24022e-09
1.05735e-07
1.99993e-09
-4.20352e-09
3.5136e-09
-5.08511e-09
3.27563e-09
-2.81378e-09
1.44593e-09
2.92042e-11
-1.69777e-09
2.74906e-09
-5.96448e-09
5.14793e-09
-1.12306e-08
7.17769e-09
-1.73933e-08
8.86209e-09
-2.43497e-08
1.0268e-08
-3.19971e-08
1.14759e-08
-4.02222e-08
1.25549e-08
-4.89275e-08
1.35482e-08
-5.80279e-08
1.44735e-08
-6.74399e-08
1.53296e-08
-7.7075e-08
1.61037e-08
-8.68459e-08
1.67779e-08
-9.66628e-08
1.73342e-08
-1.06441e-07
1.77568e-08
-1.16097e-07
1.8034e-08
-1.25554e-07
1.81588e-08
-1.34743e-07
1.8131e-08
-1.43606e-07
1.79556e-08
-1.52091e-07
1.76418e-08
-1.60162e-07
1.72015e-08
-1.67785e-07
1.66486e-08
-1.74941e-07
1.59979e-08
-1.8161e-07
1.52643e-08
-1.87787e-07
1.44619e-08
-1.93463e-07
1.36044e-08
-1.98641e-07
1.27037e-08
-2.03321e-07
1.17707e-08
-2.07508e-07
1.08146e-08
-2.11206e-07
9.84322e-09
-2.14426e-07
8.86299e-09
-2.17171e-07
7.87924e-09
-2.19455e-07
6.8961e-09
-2.21283e-07
5.91706e-09
-2.22669e-07
4.94478e-09
-2.2362e-07
3.98163e-09
-2.24152e-07
3.02944e-09
-2.24275e-07
2.09026e-09
-2.24008e-07
1.1667e-09
-2.23369e-07
2.63377e-10
-2.22383e-07
-6.13283e-10
-2.21057e-07
-1.45932e-09
-2.19385e-07
-2.27675e-09
-2.17352e-07
-3.06787e-09
-2.14962e-07
-3.83325e-09
-2.12218e-07
-4.57305e-09
-2.09131e-07
-5.28754e-09
-2.05711e-07
-5.9765e-09
-2.01971e-07
-6.63962e-09
-1.9792e-07
-7.27631e-09
-1.93574e-07
-7.88604e-09
-1.88944e-07
-8.46813e-09
-1.84045e-07
-9.02206e-09
-1.78889e-07
-9.54724e-09
-1.7349e-07
-1.00433e-08
-1.67863e-07
-1.05097e-08
-1.62023e-07
-1.09464e-08
-1.55983e-07
-1.1353e-08
-1.49758e-07
-1.17294e-08
-1.43363e-07
-1.20758e-08
-1.36813e-07
-1.23923e-08
-1.30121e-07
-1.2679e-08
-1.23301e-07
-1.29365e-08
-1.16369e-07
-1.31652e-08
-1.09336e-07
-1.33651e-08
-1.02219e-07
-1.35362e-08
-9.50292e-08
-1.36793e-08
-8.77809e-08
-1.37955e-08
-8.04861e-08
-1.38852e-08
-7.3158e-08
-1.39495e-08
-6.58077e-08
-1.3989e-08
-5.84477e-08
-1.40048e-08
-5.1088e-08
-1.39976e-08
-4.37404e-08
-1.39688e-08
-3.64143e-08
-1.39192e-08
-2.91203e-08
-1.38501e-08
-2.18664e-08
-1.37623e-08
-1.46625e-08
-1.36572e-08
-7.51526e-09
-1.35358e-08
-4.33661e-10
-1.33993e-08
6.57881e-09
-1.32484e-08
1.35208e-08
-1.3082e-08
2.0382e-08
-1.29008e-08
2.71387e-08
-1.27086e-08
3.37851e-08
-1.25034e-08
4.03214e-08
-1.22848e-08
4.67451e-08
-1.20552e-08
5.30538e-08
-1.18164e-08
5.92439e-08
-1.15697e-08
6.53116e-08
-1.13161e-08
7.12534e-08
-1.10566e-08
7.70667e-08
-1.07921e-08
8.2749e-08
-1.05235e-08
8.82985e-08
-1.02515e-08
9.37136e-08
-9.97705e-09
9.89934e-08
-9.70062e-09
1.04137e-07
-9.42297e-09
1.09143e-07
-9.14468e-09
1.14013e-07
-8.86637e-09
1.18746e-07
-8.58855e-09
1.23342e-07
-8.31169e-09
1.27801e-07
-8.03626e-09
1.32125e-07
-7.76266e-09
1.36313e-07
-7.49134e-09
1.40367e-07
-7.2226e-09
1.44288e-07
-6.9568e-09
1.48077e-07
-6.69417e-09
1.51737e-07
-6.43501e-09
1.55268e-07
-6.17946e-09
1.58672e-07
-5.92779e-09
1.61951e-07
-5.68009e-09
1.65107e-07
-5.4366e-09
1.68143e-07
-5.19746e-09
1.71059e-07
-4.96288e-09
1.73859e-07
-4.73289e-09
1.76544e-07
-4.50763e-09
1.79116e-07
-4.28724e-09
1.81579e-07
-4.07184e-09
1.83934e-07
-3.86143e-09
1.86183e-07
-3.6561e-09
1.88329e-07
-3.45584e-09
1.90375e-07
-3.26075e-09
1.92321e-07
-3.07078e-09
1.94172e-07
-2.886e-09
1.95929e-07
-2.70633e-09
1.97594e-07
-2.53189e-09
1.9917e-07
-2.36257e-09
2.0066e-07
-2.19846e-09
2.02066e-07
-2.03948e-09
2.03391e-07
-1.88576e-09
2.04636e-07
-1.73724e-09
2.05804e-07
-1.5939e-09
2.06898e-07
-1.4556e-09
2.0792e-07
-1.32231e-09
2.08871e-07
-1.19381e-09
2.09755e-07
-1.06994e-09
2.10573e-07
-9.50396e-10
2.11327e-07
-8.34776e-10
2.12022e-07
-7.22695e-10
2.12661e-07
-6.13876e-10
2.13245e-07
-5.08667e-10
2.13776e-07
-4.08008e-10
2.14253e-07
-3.1244e-10
2.14679e-07
-2.2178e-10
2.15054e-07
-1.35667e-10
2.15382e-07
-5.36529e-11
2.15662e-07
2.47802e-11
2.15898e-07
9.97696e-11
2.1609e-07
1.71337e-10
2.16241e-07
2.39725e-10
2.16352e-07
3.05217e-10
2.16424e-07
3.68091e-10
2.16459e-07
4.28707e-10
2.16457e-07
4.87376e-10
2.1642e-07
5.44354e-10
2.16347e-07
5.99984e-10
2.16241e-07
6.54776e-10
2.161e-07
7.09386e-10
2.15925e-07
7.64613e-10
2.15715e-07
8.21428e-10
2.15469e-07
8.8106e-10
2.15185e-07
9.45007e-10
2.14859e-07
1.01518e-09
2.14489e-07
1.09412e-09
2.14068e-07
1.18531e-09
2.13588e-07
1.29348e-09
2.13038e-07
1.42523e-09
2.12403e-07
1.58977e-09
2.11662e-07
1.80026e-09
2.10784e-07
2.07591e-09
2.09726e-07
2.44712e-09
2.08425e-07
2.95904e-09
2.06784e-07
3.69513e-09
2.04636e-07
4.82263e-09
2.01792e-07
6.56629e-09
1.9772e-07
9.53862e-09
1.47769e-08
1.92184e-07
-1.04776e-10
-4.09785e-09
-2.46498e-09
-2.72365e-09
-6.39604e-09
1.11825e-09
-1.12632e-08
4.8969e-09
-1.68332e-08
8.31972e-09
-2.30359e-08
1.1351e-08
-2.98488e-08
1.39911e-08
-3.72482e-08
1.62617e-08
-4.51843e-08
1.82046e-08
-5.35798e-08
1.98715e-08
-6.23347e-08
2.13101e-08
-7.13408e-08
2.25543e-08
-8.04888e-08
2.36219e-08
-8.96764e-08
2.4517e-08
-9.88082e-08
2.52358e-08
-1.07802e-07
2.57712e-08
-1.16584e-07
2.61167e-08
-1.25096e-07
2.6269e-08
-1.33291e-07
2.62293e-08
-1.41136e-07
2.60037e-08
-1.48607e-07
2.56019e-08
-1.55688e-07
2.50368e-08
-1.6237e-07
2.43239e-08
-1.68649e-07
2.348e-08
-1.74522e-07
2.25221e-08
-1.79992e-07
2.14672e-08
-1.85059e-07
2.03315e-08
-1.89727e-07
1.913e-08
-1.93999e-07
1.78761e-08
-1.97877e-07
1.6582e-08
-2.01365e-07
1.52581e-08
-2.04464e-07
1.39135e-08
-2.07176e-07
1.25557e-08
-2.09504e-07
1.11912e-08
-2.1145e-07
9.82543e-09
-2.13017e-07
8.46281e-09
-2.14207e-07
7.10721e-09
-2.15024e-07
5.76196e-09
-2.15472e-07
4.43005e-09
-2.15557e-07
3.11425e-09
-2.15284e-07
1.81736e-09
-2.14659e-07
5.42526e-10
-2.13689e-07
-7.06669e-10
-2.12375e-07
-1.92721e-09
-2.10716e-07
-3.11797e-09
-2.08713e-07
-4.27925e-09
-2.0637e-07
-5.41075e-09
-2.03691e-07
-6.51136e-09
-2.00684e-07
-7.57984e-09
-1.97356e-07
-8.61494e-09
-1.93716e-07
-9.61541e-09
-1.89775e-07
-1.058e-08
-1.85543e-07
-1.15076e-08
-1.81032e-07
-1.23968e-08
-1.76253e-07
-1.32467e-08
-1.71218e-07
-1.40562e-08
-1.6594e-07
-1.48244e-08
-1.60432e-07
-1.55506e-08
-1.54706e-07
-1.62341e-08
-1.48777e-07
-1.68745e-08
-1.42658e-07
-1.74714e-08
-1.36362e-07
-1.80246e-08
-1.29902e-07
-1.85341e-08
-1.23294e-07
-1.9e-08
-1.16549e-07
-1.94227e-08
-1.09682e-07
-1.98027e-08
-1.02706e-07
-2.01406e-08
-9.56332e-08
-2.04366e-08
-8.84777e-08
-2.0691e-08
-8.12518e-08
-2.09046e-08
-7.3968e-08
-2.10786e-08
-6.66384e-08
-2.12141e-08
-5.9275e-08
-2.13123e-08
-5.18891e-08
-2.13742e-08
-4.44919e-08
-2.14013e-08
-3.70938e-08
-2.13948e-08
-2.97053e-08
-2.13564e-08
-2.23361e-08
-2.12875e-08
-1.49956e-08
-2.11897e-08
-7.69235e-09
-2.10647e-08
-4.34551e-10
-2.09142e-08
6.76977e-09
-2.07394e-08
1.39123e-08
-2.05411e-08
2.09851e-08
-2.03206e-08
2.79817e-08
-2.00779e-08
3.4895e-08
-1.98136e-08
4.17157e-08
-1.95291e-08
4.84379e-08
-1.92257e-08
5.50573e-08
-1.89051e-08
6.15703e-08
-1.85693e-08
6.79736e-08
-1.82203e-08
7.42635e-08
-1.78596e-08
8.04363e-08
-1.74886e-08
8.6489e-08
-1.71087e-08
9.24186e-08
-1.67211e-08
9.8223e-08
-1.63271e-08
1.039e-07
-1.59279e-08
1.09449e-07
-1.55246e-08
1.14867e-07
-1.51181e-08
1.20155e-07
-1.47094e-08
1.25311e-07
-1.42995e-08
1.30335e-07
-1.38892e-08
1.35227e-07
-1.34792e-08
1.39987e-07
-1.30703e-08
1.44616e-07
-1.26631e-08
1.49113e-07
-1.22584e-08
1.53479e-07
-1.18566e-08
1.57716e-07
-1.14583e-08
1.61824e-07
-1.1064e-08
1.65804e-07
-1.06741e-08
1.69659e-07
-1.0289e-08
1.73388e-07
-9.90896e-09
1.76995e-07
-9.53433e-09
1.8048e-07
-9.16542e-09
1.83846e-07
-8.80241e-09
1.87094e-07
-8.44566e-09
1.90227e-07
-8.09531e-09
1.93245e-07
-7.75153e-09
1.96151e-07
-7.41444e-09
1.98948e-07
-7.08426e-09
2.01637e-07
-6.76113e-09
2.04221e-07
-6.44515e-09
2.06702e-07
-6.13641e-09
2.09081e-07
-5.835e-09
2.11361e-07
-5.54095e-09
2.13545e-07
-5.25431e-09
2.15634e-07
-4.97506e-09
2.17631e-07
-4.70325e-09
2.19538e-07
-4.4389e-09
2.21357e-07
-4.18202e-09
2.23091e-07
-3.93259e-09
2.24741e-07
-3.6906e-09
2.26311e-07
-3.45606e-09
2.27803e-07
-3.22896e-09
2.29217e-07
-3.00917e-09
2.30558e-07
-2.79656e-09
2.31826e-07
-2.59107e-09
2.33024e-07
-2.39252e-09
2.34154e-07
-2.20072e-09
2.35218e-07
-2.01542e-09
2.36218e-07
-1.83626e-09
2.37158e-07
-1.66308e-09
2.38039e-07
-1.49584e-09
2.38864e-07
-1.33445e-09
2.39635e-07
-1.17911e-09
2.40352e-07
-1.03009e-09
2.41018e-07
-8.87341e-10
2.41632e-07
-7.50594e-10
2.42198e-07
-6.19575e-10
2.42716e-07
-4.93881e-10
2.43189e-07
-3.73164e-10
2.43617e-07
-2.5715e-10
2.44002e-07
-1.45619e-10
2.44345e-07
-3.82327e-11
2.44648e-07
6.53537e-11
2.44911e-07
1.65543e-10
2.45135e-07
2.62762e-10
2.45322e-07
3.57463e-10
2.45471e-07
4.50188e-10
2.45584e-07
5.41661e-10
2.4566e-07
6.3277e-10
2.457e-07
7.24624e-10
2.45703e-07
8.18562e-10
2.45667e-07
9.1632e-10
2.45592e-07
1.02004e-09
2.45475e-07
1.13248e-09
2.45311e-07
1.25727e-09
2.45097e-07
1.39932e-09
2.44825e-07
1.56525e-09
2.44486e-07
1.76421e-09
2.44067e-07
2.00891e-09
2.4355e-07
2.31736e-09
2.4291e-07
2.71559e-09
2.42114e-07
3.24374e-09
2.41112e-07
3.96103e-09
2.39836e-07
4.97117e-09
2.3819e-07
6.46786e-09
2.36075e-07
8.68165e-09
2.33361e-07
1.22525e-08
1.79746e-08
2.30163e-07
-2.43838e-09
-1.65874e-09
-7.68485e-09
2.52366e-09
-1.3895e-08
7.32903e-09
-2.05133e-08
1.15155e-08
-2.74139e-08
1.52207e-08
-3.45749e-08
1.85122e-08
-4.19998e-08
2.14164e-08
-4.96871e-08
2.39491e-08
-5.76129e-08
2.61307e-08
-6.57286e-08
2.79873e-08
-7.39643e-08
2.95459e-08
-8.22397e-08
3.08296e-08
-9.04725e-08
3.18548e-08
-9.85872e-08
3.26316e-08
-1.06518e-07
3.31667e-08
-1.14212e-07
3.34651e-08
-1.21628e-07
3.35333e-08
-1.28739e-07
3.33796e-08
-1.35525e-07
3.30153e-08
-1.41976e-07
3.24544e-08
-1.48087e-07
3.17131e-08
-1.53858e-07
3.08082e-08
-1.59291e-07
2.97575e-08
-1.6439e-07
2.85788e-08
-1.69158e-07
2.72895e-08
-1.73596e-07
2.5906e-08
-1.77708e-07
2.44437e-08
-1.81495e-07
2.29166e-08
-1.84956e-07
2.13375e-08
-1.88092e-07
1.97175e-08
-1.909e-07
1.80665e-08
-1.9338e-07
1.6393e-08
-1.95529e-07
1.47046e-08
-1.97345e-07
1.30075e-08
-1.98827e-07
1.13075e-08
-1.99974e-07
9.6092e-09
-2.00783e-07
7.91709e-09
-2.01257e-07
6.23502e-09
-2.01393e-07
4.5666e-09
-2.01194e-07
2.91522e-09
-2.00661e-07
1.28421e-09
-1.99795e-07
-3.23123e-10
-1.98598e-07
-1.90366e-09
-1.9707e-07
-3.45481e-09
-1.95213e-07
-4.97471e-09
-1.9303e-07
-6.46181e-09
-1.90526e-07
-7.91437e-09
-1.87707e-07
-9.33033e-09
-1.84579e-07
-1.07075e-08
-1.8115e-07
-1.20439e-08
-1.77427e-07
-1.33372e-08
-1.73421e-07
-1.45856e-08
-1.69141e-07
-1.57871e-08
-1.64598e-07
-1.694e-08
-1.59801e-07
-1.80427e-08
-1.54763e-07
-1.90936e-08
-1.49495e-07
-2.00916e-08
-1.44009e-07
-2.10356e-08
-1.38318e-07
-2.19246e-08
-1.32434e-07
-2.2758e-08
-1.26369e-07
-2.35353e-08
-1.20137e-07
-2.42562e-08
-1.1375e-07
-2.49205e-08
-1.07221e-07
-2.55284e-08
-1.00563e-07
-2.60802e-08
-9.37884e-08
-2.65766e-08
-8.69103e-08
-2.70181e-08
-7.99409e-08
-2.74054e-08
-7.28924e-08
-2.7739e-08
-6.57767e-08
-2.80198e-08
-5.86057e-08
-2.82492e-08
-5.1391e-08
-2.84284e-08
-4.41439e-08
-2.8559e-08
-3.68751e-08
-2.86425e-08
-2.95954e-08
-2.86806e-08
-2.23146e-08
-2.86751e-08
-1.50427e-08
-2.86278e-08
-7.789e-09
-2.85408e-08
-5.62154e-10
-2.84161e-08
6.62901e-09
-2.82553e-08
1.37755e-08
-2.80603e-08
2.08691e-08
-2.78325e-08
2.79021e-08
-2.75737e-08
3.48669e-08
-2.72849e-08
4.17569e-08
-2.69675e-08
4.85661e-08
-2.66224e-08
5.52885e-08
-2.62513e-08
6.19188e-08
-2.5856e-08
6.84519e-08
-2.54387e-08
7.48837e-08
-2.50019e-08
8.12106e-08
-2.45476e-08
8.7429e-08
-2.4078e-08
9.35354e-08
-2.35947e-08
9.95267e-08
-2.30995e-08
1.054e-07
-2.25941e-08
1.11154e-07
-2.20801e-08
1.16785e-07
-2.15589e-08
1.22293e-07
-2.1032e-08
1.27677e-07
-2.05008e-08
1.32934e-07
-1.99664e-08
1.38066e-07
-1.943e-08
1.43071e-07
-1.88928e-08
1.47948e-07
-1.83557e-08
1.52699e-07
-1.78198e-08
1.57323e-07
-1.72859e-08
1.61821e-07
-1.67549e-08
1.66192e-07
-1.62275e-08
1.70439e-07
-1.57044e-08
1.74562e-07
-1.51862e-08
1.78562e-07
-1.46736e-08
1.8244e-07
-1.4167e-08
1.86198e-07
-1.36668e-08
1.89837e-07
-1.31736e-08
1.9336e-07
-1.26876e-08
1.96766e-07
-1.22092e-08
2.00059e-07
-1.17387e-08
2.0324e-07
-1.12765e-08
2.06311e-07