/*--------------------------------*- C++ -*----------------------------------*\
  =========                 |
  \\      /  F ield         | OpenFOAM: The Open Source CFD Toolbox
   \\    /   O peration     | Website:  https://openfoam.org
    \\  /    A nd           | Version:  6
     \\/     M anipulation  |
\*---------------------------------------------------------------------------*/
FoamFile
{
    version     2.0;
    format      ascii;
    class       volVectorField;
    location    "200";
    object      U;
}
// * * * * * * * * * * * * * * * * * * * * * * * * * * * * * * * * * * * * * //

dimensions      [0 1 -1 0 0 0 0];

internalField   nonuniform List<vector> 
12225
(
(0.0396344 -0.0374396 0)
(0.0853278 -0.0078582 0)
(0.111632 -0.00484479 0)
(0.135859 -0.00419249 0)
(0.157321 -0.00357483 0)
(0.175101 -0.00295649 0)
(0.189568 -0.00243399 0)
(0.201393 -0.00201241 0)
(0.211134 -0.0016782 0)
(0.219243 -0.00141751 0)
(0.226106 -0.00122112 0)
(0.232058 -0.00108698 0)
(0.237435 -0.0010239 0)
(0.242614 -0.00106198 0)
(0.248226 -0.0012822 0)
(0.255241 -0.00194949 0)
(0.267369 -0.00364725 0)
(0.285863 -0.0127338 0)
(0.103554 -0.0136728 0)
(0.138856 -0.0135146 0)
(0.180034 -0.0114215 0)
(0.213433 -0.0101488 0)
(0.242001 -0.00892191 0)
(0.266341 -0.00770489 0)
(0.286981 -0.00664187 0)
(0.304569 -0.00575494 0)
(0.31966 -0.00503114 0)
(0.332724 -0.00445337 0)
(0.344171 -0.00401174 0)
(0.354369 -0.00371052 0)
(0.363678 -0.00357799 0)
(0.372483 -0.00369319 0)
(0.381334 -0.00424997 0)
(0.390915 -0.00581199 0)
(0.402896 -0.00971833 0)
(0.415652 -0.0206351 0)
(0.149123 -0.0191863 0)
(0.178633 -0.0221913 0)
(0.22161 -0.0194934 0)
(0.256005 -0.0173285 0)
(0.28535 -0.0153187 0)
(0.310604 -0.0134392 0)
(0.332325 -0.0117971 0)
(0.351096 -0.0104099 0)
(0.367412 -0.00926274 0)
(0.381703 -0.00833559 0)
(0.394353 -0.00761794 0)
(0.405705 -0.00711876 0)
(0.41609 -0.00688043 0)
(0.425841 -0.00701246 0)
(0.435357 -0.0077629 0)
(0.444975 -0.00973408 0)
(0.455073 -0.0141149 0)
(0.463397 -0.0233276 0)
(0.196339 -0.0267598 0)
(0.219358 -0.0315757 0)
(0.258547 -0.0286343 0)
(0.291236 -0.0255579 0)
(0.319571 -0.0226903 0)
(0.344213 -0.0200811 0)
(0.365634 -0.0178006 0)
(0.384328 -0.0158602 0)
(0.400717 -0.014242 0)
(0.415181 -0.012923 0)
(0.428061 -0.0118919 0)
(0.439666 -0.0111602 0)
(0.450284 -0.010779 0)
(0.460187 -0.0108718 0)
(0.469639 -0.0116937 0)
(0.478737 -0.0137694 0)
(0.487311 -0.0178974 0)
(0.493404 -0.0250029 0)
(0.246709 -0.0317137 0)
(0.263338 -0.0400451 0)
(0.296311 -0.0378095 0)
(0.325799 -0.0341098 0)
(0.3521 -0.0304755 0)
(0.375308 -0.0271692 0)
(0.395712 -0.024263 0)
(0.413685 -0.0217704 0)
(0.429564 -0.0196746 0)
(0.443666 -0.0179526 0)
(0.456286 -0.0165928 0)
(0.467689 -0.0156082 0)
(0.478116 -0.0150514 0)
(0.487776 -0.0150431 0)
(0.496825 -0.0158081 0)
(0.50522 -0.0177372 0)
(0.512626 -0.021263 0)
(0.517531 -0.0265037 0)
(0.300409 -0.0342509 0)
(0.310992 -0.0469547 0)
(0.336753 -0.0461857 0)
(0.362023 -0.0423373 0)
(0.385498 -0.0381627 0)
(0.406647 -0.0342751 0)
(0.425502 -0.0308142 0)
(0.442284 -0.027815 0)
(0.457232 -0.0252701 0)
(0.470594 -0.0231613 0)
(0.482607 -0.0214788 0)
(0.493489 -0.0202352 0)
(0.503431 -0.0194791 0)
(0.512584 -0.0193143 0)
(0.521025 -0.0199144 0)
(0.528645 -0.0215305 0)
(0.535113 -0.0243295 0)
(0.539334 -0.028083 0)
(0.357264 -0.0349162 0)
(0.362331 -0.052056 0)
(0.38065 -0.0532958 0)
(0.400996 -0.0498346 0)
(0.420994 -0.0454295 0)
(0.439546 -0.0411331 0)
(0.456391 -0.0372253 0)
(0.471578 -0.0337917 0)
(0.485237 -0.0308469 0)
(0.497536 -0.0283836 0)
(0.50865 -0.0263964 0)
(0.518744 -0.0248968 0)
(0.527962 -0.0239249 0)
(0.536401 -0.0235598 0)
(0.544085 -0.0239183 0)
(0.550887 -0.0251325 0)
(0.556546 -0.0272027 0)
(0.560298 -0.0297949 0)
(0.416839 -0.0340888 0)
(0.417093 -0.0552147 0)
(0.428257 -0.0588261 0)
(0.443263 -0.0562637 0)
(0.459267 -0.0519832 0)
(0.474748 -0.0474965 0)
(0.489167 -0.0432838 0)
(0.50239 -0.0395126 0)
(0.51443 -0.0362359 0)
(0.525368 -0.033465 0)
(0.535315 -0.0312023 0)
(0.544381 -0.029459 0)
(0.55266 -0.0282643 0)
(0.560205 -0.0276704 0)
(0.567008 -0.0277411 0)
(0.572949 -0.0285201 0)
(0.577852 -0.0299171 0)
(0.581186 -0.0316048 0)
(0.478471 -0.032107 0)
(0.474831 -0.0563993 0)
(0.47949 -0.062533 0)
(0.489014 -0.0613022 0)
(0.500663 -0.0575139 0)
(0.512678 -0.0530906 0)
(0.524298 -0.048747 0)
(0.535218 -0.0447616 0)
(0.545329 -0.0412417 0)
(0.554626 -0.0382267 0)
(0.563152 -0.0357316 0)
(0.570962 -0.0337686 0)
(0.578103 -0.032357 0)
(0.584591 -0.0315235 0)
(0.590398 -0.0312895 0)
(0.595424 -0.0316395 0)
(0.599565 -0.0324451 0)
(0.602438 -0.03343 0)
(0.541356 -0.0293216 0)
(0.534928 -0.055685 0)
(0.53397 -0.0642603 0)
(0.538143 -0.0646599 0)
(0.545255 -0.0617046 0)
(0.553515 -0.057616 0)
(0.562023 -0.0533421 0)
(0.570335 -0.0492903 0)
(0.578233 -0.0456376 0)
(0.585628 -0.0424603 0)
(0.592494 -0.0397916 0)
(0.598832 -0.0376479 0)
(0.604647 -0.0360409 0)
(0.609924 -0.0349776 0)
(0.614622 -0.0344485 0)
(0.618661 -0.0344047 0)
(0.621992 -0.0347122 0)
(0.624316 -0.0351537 0)
(0.604646 -0.0260514 0)
(0.596534 -0.0532658 0)
(0.591026 -0.0639524 0)
(0.590243 -0.0661098 0)
(0.592837 -0.0642612 0)
(0.597184 -0.0607684 0)
(0.602351 -0.0567764 0)
(0.607805 -0.0528247 0)
(0.613242 -0.0491686 0)
(0.618497 -0.0459289 0)
(0.623484 -0.0431623 0)
(0.628152 -0.0408936 0)
(0.632467 -0.039131 0)
(0.636389 -0.0378687 0)
(0.639866 -0.0370788 0)
(0.642836 -0.0366977 0)
(0.64528 -0.0366035 0)
(0.64694 -0.0366327 0)
(0.66224 -0.0228084 0)
(0.653461 -0.0497762 0)
(0.644858 -0.0618862 0)
(0.6401 -0.0655888 0)
(0.638758 -0.0649037 0)
(0.639516 -0.0621532 0)
(0.641507 -0.0586026 0)
(0.644179 -0.054899 0)
(0.64718 -0.0513684 0)
(0.650292 -0.0481757 0)
(0.653381 -0.0454026 0)
(0.656358 -0.0430852 0)
(0.659156 -0.0412334 0)
(0.661715 -0.0398356 0)
(0.663975 -0.038857 0)
(0.665881 -0.0382324 0)
(0.667428 -0.0378563 0)
(0.668371 -0.0376127 0)
(0.71811 -0.0195528 0)
(0.709352 -0.0454394 0)
(0.698631 -0.0584284 0)
(0.690532 -0.0634704 0)
(0.685604 -0.0639689 0)
(0.682924 -0.0620721 0)
(0.681765 -0.0590944 0)
(0.681613 -0.0557647 0)
(0.682099 -0.0524712 0)
(0.682974 -0.049421 0)
(0.684068 -0.0467216 0)
(0.68526 -0.0444234 0)
(0.686455 -0.0425408 0)
(0.687576 -0.0410625 0)
(0.688556 -0.039953 0)
(0.689342 -0.039152 0)
(0.689927 -0.0385719 0)
(0.690079 -0.038137 0)
(0.779254 -0.0160271 0)
(0.77109 -0.0396186 0)
(0.759087 -0.052843 0)
(0.748073 -0.0589974 0)
(0.739627 -0.0607367 0)
(0.73335 -0.0598819 0)
(0.728738 -0.0576916 0)
(0.725388 -0.0549373 0)
(0.722967 -0.0520582 0)
(0.721216 -0.0493011 0)
(0.719944 -0.0468012 0)
(0.719005 -0.0446259 0)
(0.718282 -0.0427996 0)
(0.717682 -0.0413161 0)
(0.717128 -0.0401456 0)
(0.716564 -0.0392388 0)
(0.715972 -0.03853 0)
(0.715135 -0.0379703 0)
(0.843502 -0.0124036 0)
(0.836337 -0.0323811 0)
(0.824013 -0.044844 0)
(0.810874 -0.0515442 0)
(0.799346 -0.0543285 0)
(0.78962 -0.0545689 0)
(0.781492 -0.0533352 0)
(0.774745 -0.0513639 0)
(0.769141 -0.0491089 0)
(0.764457 -0.046841 0)
(0.760504 -0.0447174 0)
(0.757128 -0.0428226 0)
(0.7542 -0.0411931 0)
(0.751612 -0.0398329 0)
(0.749281 -0.0387232 0)
(0.747141 -0.0378294 0)
(0.745157 -0.0371078 0)
(0.743127 -0.0365274 0)
(0.906626 -0.0087764 0)
(0.900582 -0.0239566 0)
(0.888763 -0.0343777 0)
(0.874516 -0.0406779 0)
(0.860724 -0.0439503 0)
(0.848109 -0.0450722 0)
(0.836785 -0.0448078 0)
(0.826769 -0.0437549 0)
(0.81798 -0.0423189 0)
(0.810279 -0.0407576 0)
(0.803516 -0.0392299 0)
(0.797551 -0.0378275 0)
(0.792258 -0.0365965 0)
(0.787525 -0.0355515 0)
(0.783261 -0.0346864 0)
(0.779391 -0.0339827 0)
(0.775862 -0.033416 0)
(0.772497 -0.0329687 0)
(0.96109 -0.00512419 0)
(0.955986 -0.0145563 0)
(0.945093 -0.0215853 0)
(0.930664 -0.0262666 0)
(0.915629 -0.0291107 0)
(0.901061 -0.0305508 0)
(0.887326 -0.0309997 0)
(0.874654 -0.0308264 0)
(0.863142 -0.0303077 0)
(0.852769 -0.0296321 0)
(0.843453 -0.0289224 0)
(0.835093 -0.0282544 0)
(0.827582 -0.02767 0)
(0.820817 -0.0271871 0)
(0.814705 -0.0268083 0)
(0.809165 -0.0265269 0)
(0.804128 -0.0263327 0)
(0.799456 -0.0262181 0)
(0.994169 -0.0013013 0)
(0.989623 -0.00412633 0)
(0.979575 -0.00651888 0)
(0.965465 -0.00833939 0)
(0.950078 -0.00969254 0)
(0.934648 -0.0106616 0)
(0.919671 -0.0113345 0)
(0.9055 -0.0118098 0)
(0.892353 -0.0121706 0)
(0.880305 -0.0124765 0)
(0.869341 -0.0127675 0)
(0.859399 -0.013069 0)
(0.850399 -0.0133948 0)
(0.842251 -0.0137504 0)
(0.834867 -0.0141359 0)
(0.828166 -0.0145484 0)
(0.822071 -0.014985 0)
(0.816498 -0.0154439 0)
(0.985589 0.00261526 0)
(0.98136 0.00730347 0)
(0.971535 0.0107684 0)
(0.957594 0.0129459 0)
(0.942376 0.0140287 0)
(0.927155 0.0142482 0)
(0.912418 0.0138307 0)
(0.898489 0.0129742 0)
(0.885571 0.0118335 0)
(0.873731 0.0105216 0)
(0.862951 0.00911801 0)
(0.853168 0.00767763 0)
(0.844303 0.00623738 0)
(0.83627 0.00482156 0)
(0.828983 0.00344553 0)
(0.822361 0.00211797 0)
(0.816328 0.000842016 0)
(0.810857 -0.000384236 0)
(0.925892 0.00707965 0)
(0.919855 0.0194907 0)
(0.908378 0.0282388 0)
(0.893899 0.0334726 0)
(0.879368 0.0359796 0)
(0.865736 0.0364957 0)
(0.853183 0.0356538 0)
(0.841787 0.0339621 0)
(0.83155 0.0317842 0)
(0.822392 0.0293622 0)
(0.814206 0.0268531 0)
(0.806877 0.0243556 0)
(0.8003 0.0219296 0)
(0.794381 0.019609 0)
(0.789036 0.017411 0)
(0.784189 0.0153417 0)
(0.779779 0.0133997 0)
(0.775818 0.0115762 0)
(0.844509 0.0120917 0)
(0.837132 0.0311334 0)
(0.824885 0.0429749 0)
(0.811373 0.0490787 0)
(0.799282 0.0512408 0)
(0.78896 0.0508271 0)
(0.78016 0.0488549 0)
(0.772664 0.046033 0)
(0.766264 0.0428106 0)
(0.760761 0.0394588 0)
(0.755984 0.0361374 0)
(0.751797 0.0329371 0)
(0.748092 0.0299052 0)
(0.744785 0.0270628 0)
(0.741807 0.024415 0)
(0.739105 0.0219572 0)
(0.736634 0.0196793 0)
(0.734432 0.0175648 0)
(0.748286 0.0175654 0)
(0.739721 0.0419067 0)
(0.728372 0.0547239 0)
(0.718162 0.0599132 0)
(0.7107 0.060552 0)
(0.705466 0.0586002 0)
(0.701771 0.0553129 0)
(0.699153 0.0514434 0)
(0.697281 0.0474109 0)
(0.695911 0.0434405 0)
(0.694873 0.0396492 0)
(0.694054 0.0360927 0)
(0.693375 0.0327912 0)
(0.692784 0.0297452 0)
(0.692246 0.0269441 0)
(0.691736 0.0243723 0)
(0.691237 0.0220116 0)
(0.69081 0.01984 0)
(0.645463 0.0233641 0)
(0.636858 0.0506404 0)
(0.628996 0.0620711 0)
(0.624612 0.0649856 0)
(0.623563 0.0635728 0)
(0.62452 0.0600835 0)
(0.626523 0.0557546 0)
(0.629027 0.0512203 0)
(0.631705 0.0467857 0)
(0.634358 0.0425918 0)
(0.636876 0.0386969 0)
(0.639201 0.0351166 0)
(0.641308 0.031844 0)
(0.64319 0.0288611 0)
(0.644853 0.0261447 0)
(0.646306 0.0236708 0)
(0.647563 0.021416 0)
(0.648701 0.0193549 0)
(0.541908 0.0288683 0)
(0.535433 0.0558919 0)
(0.534019 0.0640784 0)
(0.537455 0.0642214 0)
(0.543727 0.060964 0)
(0.551111 0.0564291 0)
(0.558666 0.0516003 0)
(0.565939 0.0468991 0)
(0.572719 0.0424946 0)
(0.578914 0.0384459 0)
(0.584504 0.0347612 0)
(0.589507 0.0314248 0)
(0.593957 0.0284107 0)
(0.5979 0.0256888 0)
(0.601381 0.023229 0)
(0.604446 0.0210028 0)
(0.607135 0.0189852 0)
(0.609541 0.0171505 0)
(0.442003 0.0330466 0)
(0.440314 0.0565538 0)
(0.447922 0.060676 0)
(0.460158 0.0584318 0)
(0.473687 0.0540511 0)
(0.486996 0.0491747 0)
(0.499427 0.0444231 0)
(0.510751 0.0400064 0)
(0.520931 0.0359857 0)
(0.530006 0.0323625 0)
(0.538057 0.029113 0)
(0.545175 0.0262038 0)
(0.551456 0.0235989 0)
(0.55699 0.0212637 0)
(0.561864 0.0191659 0)
(0.566152 0.0172766 0)
(0.569918 0.0155717 0)
(0.573271 0.0140285 0)
(0.349088 0.0346406 0)
(0.354403 0.0522304 0)
(0.372694 0.0525946 0)
(0.393573 0.0489423 0)
(0.41349 0.0443529 0)
(0.431731 0.0398089 0)
(0.448081 0.0356007 0)
(0.462579 0.0317989 0)
(0.475365 0.0284035 0)
(0.486609 0.0253865 0)
(0.496478 0.0227102 0)
(0.505135 0.0203347 0)
(0.512728 0.0182229 0)
(0.519386 0.0163407 0)
(0.525229 0.0146581 0)
(0.530356 0.0131486 0)
(0.534853 0.011791 0)
(0.538836 0.0105679 0)
(0.265404 0.0322677 0)
(0.279084 0.0432653 0)
(0.308251 0.041189 0)
(0.336537 0.037297 0)
(0.361449 0.0333154 0)
(0.383386 0.0295953 0)
(0.402592 0.0262307 0)
(0.419339 0.0232398 0)
(0.433923 0.0206028 0)
(0.446617 0.0182842 0)
(0.457667 0.016245 0)
(0.467293 0.0144481 0)
(0.475684 0.0128602 0)
(0.483006 0.0114522 0)
(0.4894 0.0101988 0)
(0.494989 0.00907783 0)
(0.499872 0.00807184 0)
(0.504176 0.00716988 0)
(0.19184 0.0252747 0)
(0.214687 0.0311009 0)
(0.25252 0.0284708 0)
(0.285943 0.0253086 0)
(0.314129 0.0224249 0)
(0.338401 0.0197513 0)
(0.35933 0.0173357 0)
(0.377349 0.0152075 0)
(0.392868 0.0133499 0)
(0.406247 0.0117315 0)
(0.417795 0.0103197 0)
(0.427774 0.0090844 0)
(0.43641 0.00799945 0)
(0.443892 0.00704264 0)
(0.45038 0.00619503 0)
(0.456012 0.00543938 0)
(0.460898 0.00476133 0)
(0.465173 0.00415579 0)
(0.12695 0.0183011 0)
(0.159751 0.0191753 0)
(0.199765 0.0170018 0)
(0.234669 0.0149239 0)
(0.26389 0.0131588 0)
(0.288723 0.0114509 0)
(0.309853 0.00988433 0)
(0.327793 0.00851668 0)
(0.343033 0.00733917 0)
(0.355999 0.00632672 0)
(0.367047 0.00545425 0)
(0.376475 0.00469955 0)
(0.384529 0.00404361 0)
(0.391416 0.00347076 0)
(0.397306 0.00296806 0)
(0.402344 0.00252304 0)
(0.406643 0.00212279 0)
(0.410342 0.00176663 0)
(0.051651 0.0431261 0)
(0.102077 0.0134223 0)
(0.130611 0.00907478 0)
(0.15881 0.00750506 0)
(0.183268 0.00644409 0)
(0.203649 0.00545649 0)
(0.220459 0.00456649 0)
(0.234216 0.00381229 0)
(0.245449 0.00318245 0)
(0.254617 0.00265538 0)
(0.262089 0.0022124 0)
(0.268166 0.00183819 0)
(0.273089 0.00152013 0)
(0.277056 0.00124831 0)
(0.280228 0.00101461 0)
(0.282739 0.000812759 0)
(0.284679 0.000632155 0)
(0.286163 0.00047414 0)
(0.000838276 -0.00203907 3.34048e-22)
(0.00361008 -0.00371085 -3.38192e-22)
(0.00659569 -0.00379935 0)
(0.008859 -0.00293881 0)
(0.00989448 -0.00172849 0)
(0.00965266 -0.000568008 2.04143e-22)
(0.00836329 0.000359371 0)
(0.00627906 0.00103933 0)
(0.00358412 0.00154706 0)
(0.000395835 0.00196623 0)
(-0.00323789 0.0023573 -6.15386e-23)
(-0.00732085 0.00276803 0)
(-0.011871 0.00322822 0)
(-0.0169059 0.00374405 0)
(-0.0224371 0.00430554 0)
(-0.0284639 0.00489379 1.21929e-22)
(-0.0349687 0.00548515 0)
(-0.0419178 0.00605518 0)
(-0.0492611 0.00658124 0)
(-0.056938 0.00704529 0)
(-0.0648761 0.00743091 0)
(-0.0729983 0.00772666 0)
(-0.0812245 0.00792669 0)
(-0.0894756 0.00803062 2.59348e-22)
(-0.0976752 0.00804252 -2.65984e-22)
(-0.105753 0.00796799 2.70361e-22)
(-0.113644 0.00781428 2.72377e-22)
(-0.121291 0.00759078 0)
(-0.128646 0.00730737 0)
(-0.135665 0.00697388 -2.63349e-22)
(-0.142315 0.00659961 -2.5495e-22)
(-0.148567 0.00619291 0)
(-0.154399 0.00576128 0)
(-0.159793 0.00531096 -2.12312e-22)
(-0.164738 0.00484713 0)
(-0.169224 0.00437366 0)
(-0.173244 0.00389337 1.41958e-22)
(-0.176794 0.00340746 0)
(-0.179869 0.00291614 7.89613e-23)
(-0.182467 0.00241867 8.48917e-23)
(-0.184588 0.00191566 0)
(-0.186235 0.00141083 0)
(-0.187408 0.000913744 0)
(-0.188105 0.000438982 0)
(-0.188316 3.29645e-06 0)
(-0.188072 -0.000384036 -4.98452e-22)
(-0.187439 -0.000732473 -6.21038e-22)
(-0.186425 -0.00105657 -7.51209e-22)
(-0.185052 -0.00136184 0)
(-0.183332 -0.00165177 1.0346e-21)
(-0.181281 -0.00192761 0)
(-0.178909 -0.00219035 -1.34927e-21)
(-0.176231 -0.00244011 -1.51867e-21)
(-0.173258 -0.00267725 0)
(-0.170002 -0.00290169 0)
(-0.166476 -0.00311367 0)
(-0.162693 -0.00331309 -2.28085e-21)
(-0.158667 -0.00350019 0)
(-0.154412 -0.00367492 0)
(-0.14994 -0.00383754 0)
(-0.145265 -0.00398815 0)
(-0.140402 -0.00412705 0)
(-0.135364 -0.00425451 0)
(-0.130165 -0.0043709 0)
(-0.124819 -0.00447647 0)
(-0.11934 -0.00457112 4.56827e-21)
(-0.11374 -0.00465458 0)
(-0.108034 -0.00472769 0)
(-0.102234 -0.0047915 -5.54913e-21)
(-0.0963548 -0.00484558 -5.90605e-21)
(-0.090408 -0.00489065 0)
(-0.0844063 -0.00492705 6.67037e-21)
(-0.0783616 -0.00495532 -7.07995e-21)
(-0.0722855 -0.00497577 0)
(-0.0661893 -0.00498903 7.96056e-21)
(-0.0600837 -0.0049953 0)
(-0.053979 -0.00499526 0)
(-0.0478857 -0.00498921 -9.45871e-21)
(-0.0418133 -0.00497782 0)
(-0.0357706 -0.0049613 1.05983e-20)
(-0.0297663 -0.00494044 0)
(-0.0238084 -0.00491578 -1.18738e-20)
(-0.0179045 -0.00488797 -1.25702e-20)
(-0.0120626 -0.00485587 -1.33111e-20)
(-0.00629613 -0.004811 -2.82004e-20)
(-0.000613596 -0.00473119 2.92537e-20)
(0.00499224 -0.00460665 0)
(0.0105221 -0.0044573 0)
(0.0159649 -0.00430246 0)
(0.0213089 -0.0041478 2.7529e-20)
(0.0265498 -0.00399498 2.70501e-20)
(0.031685 -0.0038443 -2.65991e-20)
(0.0367104 -0.00369608 0)
(0.041622 -0.00355049 2.57712e-20)
(0.0464166 -0.00340782 2.53904e-20)
(0.0510918 -0.00326812 2.50295e-20)
(0.0556458 -0.00313155 0)
(0.0600772 -0.00299809 0)
(0.0643849 -0.00286786 0)
(0.068568 -0.00274082 2.37581e-20)
(0.0726261 -0.00261712 0)
(0.0765591 -0.00249668 0)
(0.0803672 -0.00237966 -2.29553e-20)
(0.0840506 -0.00226588 0)
(0.0876097 -0.00215555 0)
(0.0910448 -0.00204844 -2.22576e-20)
(0.0943567 -0.00194478 0)
(0.0975464 -0.00184435 0)
(0.100615 -0.00174733 2.16499e-20)
(0.103564 -0.00165346 2.14652e-20)
(0.106396 -0.00156292 0)
(0.109111 -0.00147543 -2.11203e-20)
(0.111711 -0.00139115 0)
(0.114199 -0.00130982 2.08058e-20)
(0.116576 -0.0012315 0)
(0.118844 -0.00115597 2.05193e-20)
(0.121006 -0.00108346 2.03861e-20)
(0.123062 -0.00101378 0)
(0.125016 -0.000946966 0)
(0.12687 -0.00088287 0)
(0.128627 -0.000821568 0)
(0.130289 -0.00076286 0)
(0.131858 -0.000706764 0)
(0.133338 -0.00065308 0)
(0.134728 -0.000601889 1.95217e-20)
(0.136033 -0.000553006 -1.94357e-20)
(0.137254 -0.000506481 0)
(0.138394 -0.000462127 0)
(0.139456 -0.000419998 0)
(0.140441 -0.000379914 0)
(0.141353 -0.000341919 -3.81352e-20)
(0.142193 -0.000305862 0)
(0.142965 -0.000271802 3.7892e-20)
(0.143671 -0.00023962 -3.778e-20)
(0.144313 -0.000209347 0)
(0.144893 -0.000180817 0)
(0.145416 -0.000154042 0)
(0.145881 -0.000128836 3.7386e-20)
(0.146293 -0.000105166 3.72997e-20)
(0.146652 -8.28508e-05 0)
(0.146961 -6.17374e-05 3.71406e-20)
(0.147222 -4.09773e-05 3.70676e-20)
(0.147433 -1.98879e-05 -3.69958e-20)
(0.147593 4.28673e-07 0)
(0.147707 1.85148e-05 0)
(0.147779 3.4253e-05 -3.6799e-20)
(0.147813 4.80631e-05 0)
(0.147811 6.03557e-05 0)
(0.147776 7.13869e-05 0)
(0.14771 8.13676e-05 0)
(0.147615 9.04455e-05 3.65277e-20)
(0.147491 9.87529e-05 3.64788e-20)
(0.147341 0.000106342 0)
(0.147166 0.000113271 3.63849e-20)
(0.146967 0.000119578 0)
(0.146745 0.000125357 0)
(0.146502 0.000130684 3.62518e-20)
(0.146237 0.000135625 0)
(0.145951 0.000140223 3.61667e-20)
(0.145646 0.000144573 0)
(0.14532 0.000148802 0)
(0.144975 0.00015308 3.60438e-20)
(0.144608 0.000157581 0)
(0.144219 0.000162516 3.59668e-20)
(0.143805 0.00016812 0)
(0.143364 0.000174685 0)
(0.142891 0.000182589 0)
(0.14238 0.000192368 -3.58421e-20)
(0.141824 0.000204759 0)
(0.14121 0.000220804 3.58127e-20)
(0.140523 0.000241921 0)
(0.139742 0.000270236 0)
(0.138837 0.00030866 0)
(0.137755 0.000362237 0)
(0.136452 0.000438181 0)
(0.134765 0.000550846 0)
(0.132681 0.000724379 0)
(0.12938 0.00104315 -7.38983e-20)
(0.126237 0.00151635 0)
(0.114486 0.00262988 0)
(0.000817516 -0.00680087 -1.10106e-21)
(0.00279051 -0.0100448 5.2711e-22)
(0.00334005 -0.00755474 0)
(0.00236545 -0.00342581 -1.82635e-22)
(0.000129892 0.000764076 0)
(-0.00317002 0.00444256 -3.40432e-23)
(-0.00742466 0.00743361 8.77382e-23)
(-0.0125351 0.00978398 6.84398e-23)
(-0.018403 0.0116515 0)
(-0.0249345 0.0132122 3.06126e-23)
(-0.0320327 0.0146046 -2.40532e-23)
(-0.0396058 0.0159133 0)
(-0.0475749 0.0171727 0)
(-0.0558667 0.0183796 0)
(-0.0644053 0.0195098 0)
(-0.0731126 0.0205298 -7.01002e-23)
(-0.0819092 0.0214058 0)
(-0.0907169 0.0221082 1.28911e-22)
(-0.0994614 0.0226127 0)
(-0.10807 0.022904 0)
(-0.116476 0.0229798 -1.8214e-22)
(-0.124623 0.022846 0)
(-0.132461 0.0225148 2.11818e-22)
(-0.139951 0.0220034 -1.22769e-22)
(-0.14706 0.0213323 1.26711e-22)
(-0.153766 0.0205238 -1.29759e-22)
(-0.160049 0.0196006 -1.31787e-22)
(-0.165899 0.0185846 0)
(-0.17131 0.0174963 0)
(-0.176277 0.0163544 1.30764e-22)
(-0.180802 0.0151753 -1.21217e-22)
(-0.184887 0.0139729 0)
(-0.188535 0.0127593 0)
(-0.191752 0.0115438 1.09797e-22)
(-0.194545 0.0103344 0)
(-0.196919 0.00913669 0)
(-0.198883 0.00795554 -7.77875e-23)
(-0.200445 0.00679425 0)
(-0.201614 0.00565555 5.56918e-23)
(-0.202399 0.00454101 -6.31469e-23)
(-0.202811 0.0034518 0)
(-0.202863 0.00238889 0)
(-0.202569 0.00135563 8.39534e-23)
(-0.201947 0.000359861 1.72286e-22)
(-0.201022 -0.000585366 2.66661e-22)
(-0.199794 -0.00147096 -1.63099e-22)
(-0.198237 -0.0023005 2.58264e-22)
(-0.196352 -0.00308316 8.98903e-22)
(-0.194141 -0.00382386 -6.99464e-22)
(-0.191611 -0.004526 -4.38916e-22)
(-0.188772 -0.0051912 0)
(-0.185632 -0.00582058 5.72416e-22)
(-0.182202 -0.00641448 -5.73763e-22)
(-0.178492 -0.00697335 0)
(-0.174514 -0.00749724 0)
(-0.170278 -0.00798649 0)
(-0.165797 -0.00844121 9.4834e-22)
(-0.161084 -0.00886179 0)
(-0.156149 -0.0092485 -2.13764e-21)
(-0.151006 -0.00960186 0)
(-0.145667 -0.00992232 -2.48063e-21)
(-0.140146 -0.0102105 0)
(-0.134455 -0.0104672 2.8407e-21)
(-0.128607 -0.0106931 0)
(-0.122615 -0.0108891 -3.21741e-21)
(-0.116491 -0.0110564 1.65017e-21)
(-0.110248 -0.0111961 0)
(-0.103899 -0.0113082 3.81306e-21)
(-0.0974559 -0.0113935 2.06894e-21)
(-0.0909311 -0.0114535 2.17527e-21)
(-0.0843366 -0.0114895 0)
(-0.0776842 -0.0115026 2.27085e-21)
(-0.0709852 -0.011494 2.50588e-21)
(-0.0642507 -0.0114648 0)
(-0.0574913 -0.0114164 -2.73611e-21)
(-0.0507172 -0.0113498 5.58107e-21)
(-0.0439385 -0.0112664 0)
(-0.0371649 -0.0111674 3.0966e-21)
(-0.0304055 -0.0110542 0)
(-0.0236689 -0.0109278 -9.9125e-21)
(-0.0169634 -0.0107896 0)
(-0.0102968 -0.0106404 1.06906e-20)
(-0.00367682 -0.0104811 3.7359e-21)
(0.00289228 -0.0103109 -3.69141e-21)
(0.00940829 -0.0101285 -7.46702e-21)
(0.0158647 -0.00992996 7.54682e-21)
(0.022246 -0.00971098 0)
(0.0285374 -0.00947526 0)
(0.0347364 -0.00923017 0)
(0.0408423 -0.00897988 -2.3905e-20)
(0.0468526 -0.00872677 -8.09449e-21)
(0.0527647 -0.00847204 8.14551e-21)
(0.0585747 -0.00821647 0)
(0.064279 -0.00796083 8.04796e-21)
(0.0698746 -0.00770585 -8.28011e-21)
(0.0753587 -0.00745217 -8.31932e-21)
(0.0807293 -0.00720033 0)
(0.0859846 -0.00695081 0)
(0.091123 -0.00670404 0)
(0.0961436 -0.00646038 -8.45188e-21)
(0.101045 -0.00622024 0)
(0.105828 -0.00598392 1.68683e-20)
(0.110491 -0.00575174 2.54517e-20)
(0.115034 -0.00552386 -1.69722e-20)
(0.119457 -0.00530057 0)
(0.123761 -0.00508197 -8.47085e-21)
(0.127945 -0.00486832 0)
(0.13201 -0.00465965 -1.71442e-20)
(0.135958 -0.00445619 8.53674e-21)
(0.139788 -0.00425789 8.55639e-21)
(0.143503 -0.0040649 0)
(0.147102 -0.00387715 2.59677e-20)
(0.150589 -0.00369474 -1.73101e-20)
(0.153964 -0.00351755 -8.71265e-21)
(0.157229 -0.00334572 0)
(0.160385 -0.00317917 -8.73594e-21)
(0.163434 -0.00301795 -2.6166e-20)
(0.166377 -0.00286183 0)
(0.169217 -0.00271096 -1.74687e-20)
(0.171956 -0.00256531 -1.74925e-20)
(0.174594 -0.00242488 -1.75158e-20)
(0.177135 -0.00228946 0)
(0.179581 -0.00215904 0)
(0.181933 -0.00203345 0)
(0.184193 -0.00191273 8.77699e-21)
(0.186363 -0.0017967 8.83869e-21)
(0.188445 -0.00168535 0)
(0.190441 -0.00157852 1.76719e-20)
(0.192354 -0.00147621 1.7694e-20)
(0.194186 -0.00137822 0)
(0.195938 -0.00128455 1.77773e-20)
(0.197613 -0.00119504 3.55227e-20)
(0.199213 -0.00110972 -1.78189e-20)
(0.20074 -0.00102847 -1.77736e-20)
(0.202197 -0.000951198 0)
(0.203585 -0.000877746 0)
(0.204906 -0.000808067 0)
(0.206163 -0.000741911 -1.79228e-20)
(0.207357 -0.000679131 1.78923e-20)
(0.208491 -0.000619446 3.58798e-20)
(0.209565 -0.000562514 -1.79851e-20)
(0.210584 -0.000507805 1.79623e-20)
(0.21155 -0.000454897 1.80268e-20)
(0.212467 -0.000404348 0)
(0.213335 -0.000357208 0)
(0.214155 -0.000313705 -1.8054e-20)
(0.214926 -0.000273531 0)
(0.215651 -0.000236296 0)
(0.216332 -0.000201683 3.62725e-20)
(0.21697 -0.000169352 0)
(0.217565 -0.000139115 1.81598e-20)
(0.218121 -0.000110861 -1.82037e-20)
(0.218638 -8.44656e-05 0)
(0.219118 -5.97697e-05 1.82125e-20)
(0.219563 -3.6618e-05 0)
(0.219973 -1.48061e-05 0)
(0.22035 5.84316e-06 -1.82813e-20)
(0.220694 2.54751e-05 3.65721e-20)
(0.221007 4.42457e-05 -1.83092e-20)
(0.221287 6.23864e-05 0)
(0.221537 8.01893e-05 0)
(0.221756 9.80217e-05 1.83322e-20)
(0.221942 0.000116303 0)
(0.222096 0.000135558 1.83581e-20)
(0.222215 0.000156403 0)
(0.222297 0.000179606 0)
(0.222338 0.000206167 0)
(0.222333 0.000237449 1.84241e-20)
(0.222275 0.000275302 0)
(0.222153 0.000322285 -1.84593e-20)
(0.221955 0.000381972 0)
(0.22166 0.000459458 0)
(0.221244 0.000562122 3.70859e-20)
(0.220664 0.00070195 -3.71817e-20)
(0.219876 0.000895827 0)
(0.218769 0.00117792 0)
(0.217303 0.0016165 0)
(0.214958 0.00229644 1.13947e-19)
(0.212643 0.00346688 0)
(0.20545 0.00567362 -7.89274e-20)
(0.000347741 -0.00868906 -1.99797e-22)
(-0.000916658 -0.00867594 -7.58238e-22)
(-0.0037974 -0.00271566 0)
(-0.00767503 0.0036644 2.55935e-22)
(-0.0123066 0.00946944 0)
(-0.0175525 0.0145157 0)
(-0.0233541 0.0187872 2.45863e-23)
(-0.0296944 0.0223434 -3.57194e-23)
(-0.0365446 0.0252948 -5.08726e-23)
(-0.0438487 0.027771 -1.61973e-23)
(-0.0515261 0.0298861 0)
(-0.0594827 0.0317171 0)
(-0.0676211 0.0333011 6.18465e-24)
(-0.0758463 0.0346451 -1.42131e-23)
(-0.08407 0.0357383 4.191e-23)
(-0.0922125 0.0365627 0)
(-0.100204 0.0371021 9.89379e-23)
(-0.107987 0.0373458 -7.51334e-23)
(-0.115512 0.0372924 0)
(-0.122744 0.036949 1.81759e-22)
(-0.129657 0.03633 1.08968e-22)
(-0.136235 0.0354577 -2.30377e-22)
(-0.142466 0.0343594 -1.28534e-22)
(-0.148343 0.0330651 0)
(-0.153864 0.0316055 2.86757e-22)
(-0.159029 0.0300111 3.00062e-22)
(-0.163837 0.0283104 0)
(-0.168291 0.0265298 3.17109e-22)
(-0.172394 0.0246931 0)
(-0.176148 0.0228207 3.2033e-22)
(-0.179553 0.0209301 1.5624e-22)
(-0.182613 0.0190361 0)
(-0.185328 0.0171507 0)
(-0.187699 0.0152835 0)
(-0.189729 0.0134422 0)
(-0.191419 0.0116328 0)
(-0.19277 0.00986013 0)
(-0.193786 0.00812801 1.80983e-22)
(-0.194468 0.0064398 -2.12047e-22)
(-0.194821 0.00479843 0)
(-0.19485 0.00320694 0)
(-0.194559 0.00166864 0)
(-0.193952 0.000187528 -2.17786e-23)
(-0.193034 -0.00123295 -1.08685e-22)
(-0.191804 -0.00259312 -3.09525e-22)
(-0.190262 -0.00389677 4.32334e-22)
(-0.188407 -0.00514546 2.6528e-22)
(-0.186243 -0.00633881 -3.65056e-22)
(-0.183776 -0.00747669 3.55362e-23)
(-0.181011 -0.00855927 -4.73809e-22)
(-0.177955 -0.00958656 0)
(-0.174618 -0.0105586 -6.27051e-22)
(-0.171006 -0.0114754 4.4598e-23)
(-0.167131 -0.0123369 0)
(-0.163002 -0.0131432 0)
(-0.158629 -0.0138944 9.64034e-22)
(-0.154024 -0.0145907 0)
(-0.149196 -0.0152327 0)
(-0.144158 -0.0158207 -1.18329e-21)
(-0.138922 -0.0163555 -2.67256e-21)
(-0.133498 -0.0168378 1.49471e-21)
(-0.127899 -0.0172687 0)
(-0.122137 -0.0176491 -1.69878e-21)
(-0.116224 -0.0179804 0)
(-0.110172 -0.0182639 -1.77491e-21)
(-0.103993 -0.0185012 -2.0156e-21)
(-0.0976996 -0.018694 4.10816e-21)
(-0.0913028 -0.0188434 2.09141e-21)
(-0.0848144 -0.0189504 0)
(-0.0782459 -0.0190167 -4.76377e-21)
(-0.0716088 -0.0190447 0)
(-0.0649143 -0.019036 -7.89158e-21)
(-0.0581731 -0.0189925 -5.43777e-21)
(-0.0513958 -0.0189161 -5.66594e-21)
(-0.0445926 -0.0188088 5.89568e-21)
(-0.0377734 -0.0186724 -9.26755e-21)
(-0.0309476 -0.0185091 0)
(-0.0241245 -0.0183207 0)
(-0.0173129 -0.0181094 6.82843e-21)
(-0.010521 -0.0178768 1.06753e-20)
(-0.00375682 -0.0176253 0)
(0.00297269 -0.0173563 -3.8183e-21)
(0.00965994 -0.0170715 0)
(0.0162972 -0.0167711 1.1693e-20)
(0.022878 -0.0164555 1.49183e-22)
(0.0293958 -0.0161259 -1.4659e-22)
(0.0358428 -0.0157847 -8.11031e-21)
(0.0422115 -0.0154325 0)
(0.0484972 -0.0150706 8.33426e-21)
(0.0546963 -0.014701 1.33565e-22)
(0.0608056 -0.0143257 0)
(0.0668216 -0.013946 0)
(0.0727409 -0.0135632 0)
(0.07856 -0.0131785 -8.94899e-21)
(0.0842759 -0.012793 0)
(0.0898861 -0.0124079 0)
(0.0953884 -0.0120239 0)
(0.100781 -0.011642 0)
(0.106062 -0.0112629 0)
(0.111231 -0.0108873 -9.3129e-21)
(0.116287 -0.0105159 0)
(0.121229 -0.0101493 -9.54513e-21)
(0.126056 -0.00978798 -9.60763e-21)
(0.130769 -0.00943237 9.66785e-21)
(0.135367 -0.00908286 0)
(0.13985 -0.00873987 9.78201e-21)
(0.144218 -0.00840367 0)
(0.148473 -0.00807457 9.8886e-21)
(0.152614 -0.00775274 -9.93937e-21)
(0.156643 -0.00743839 -2.98251e-20)
(0.160561 -0.00713162 0)
(0.164368 -0.00683255 -3.01182e-20)
(0.168066 -0.00654124 -1.00027e-20)
(0.171657 -0.00625774 0)
(0.175141 -0.00598208 -2.03147e-20)
(0.17852 -0.00571431 -2.04036e-20)
(0.181796 -0.00545446 3.07898e-20)
(0.18497 -0.00520247 0)
(0.188044 -0.00495829 1.03796e-20)
(0.19102 -0.0047219 1.04189e-20)
(0.1939 -0.00449326 3.12822e-20)
(0.196684 -0.00427228 0)
(0.199377 -0.00405888 0)
(0.201978 -0.00385299 0)
(0.20449 -0.00365448 1.05309e-20)
(0.206915 -0.00346324 0)
(0.209255 -0.00327915 0)
(0.211511 -0.00310208 -1.07158e-20)
(0.213686 -0.00293194 -1.07514e-20)
(0.215781 -0.00276858 0)
(0.2178 -0.00261185 0)
(0.219743 -0.00246165 -2.17147e-20)
(0.221613 -0.00231788 0)
(0.223412 -0.0021804 2.18539e-20)
(0.225142 -0.00204902 2.18734e-20)
(0.226804 -0.00192356 0)
(0.228401 -0.00180388 0)
(0.229934 -0.00168975 -2.208e-20)
(0.231405 -0.00158093 -4.09798e-23)
(0.232816 -0.00147713 -3.91535e-23)
(0.23417 -0.00137804 0)
(0.235468 -0.00128339 -4.47302e-20)
(0.236712 -0.00119308 0)
(0.237907 -0.00110711 0)
(0.239052 -0.00102562 0)
(0.24015 -0.000948723 2.26389e-20)
(0.2412 -0.000876301 0)
(0.242205 -0.000808108 -4.5472e-20)
(0.243166 -0.000743861 -2.28237e-20)
(0.244084 -0.000683207 0)
(0.244962 -0.000625919 -2.29385e-20)
(0.245799 -0.000571849 0)
(0.246598 -0.00052081 0)
(0.247359 -0.000472563 -6.92623e-20)
(0.248084 -0.000426869 4.62638e-20)
(0.248773 -0.000383461 0)
(0.249428 -0.000342082 4.64586e-20)
(0.25005 -0.000302491 -2.32934e-20)
(0.250639 -0.000264413 0)
(0.251195 -0.000227477 0)
(0.25172 -0.000191236 0)
(0.252211 -0.000155152 -7.03653e-20)
(0.252671 -0.000118597 0)
(0.253096 -8.07845e-05 -2.35448e-20)
(0.253487 -4.0766e-05 0)
(0.25384 2.64312e-06 0)
(0.254152 5.09918e-05 0)
(0.25442 0.000106363 0)
(0.254636 0.000171553 0)
(0.254793 0.00025041 0)
(0.254877 0.000348254 -4.76394e-20)
(0.254874 0.000472611 0)
(0.254761 0.000634326 -2.39405e-20)
(0.254507 0.000850347 7.20138e-20)
(0.254072 0.00114539 0)
(0.253382 0.00156467 0)
(0.252402 0.00219422 -4.86016e-20)
(0.250823 0.00314004 -4.89689e-20)
(0.249259 0.00470474 4.94186e-20)
(0.245138 0.007315 5.06037e-20)
(-0.00045476 -0.00604116 3.13927e-21)
(-0.0045726 -0.000945021 1.3993e-21)