/*--------------------------------*- C++ -*----------------------------------*\
  =========                 |
  \\      /  F ield         | OpenFOAM: The Open Source CFD Toolbox
   \\    /   O peration     | Website:  https://openfoam.org
    \\  /    A nd           | Version:  6
     \\/     M anipulation  |
\*---------------------------------------------------------------------------*/
FoamFile
{
    version     2.0;
    format      ascii;
    class       volScalarField;
    location    "100";
    object      epsilon;
}
// * * * * * * * * * * * * * * * * * * * * * * * * * * * * * * * * * * * * * //

dimensions      [0 2 -3 0 0 0 0];

internalField   nonuniform List<scalar> 
12225
(
174.878
63.4757
46.9229
39.4975
34.7414
31.2563
28.5385
26.3402
24.5193
22.986
21.6801
20.5605
19.5985
18.7767
18.0877
17.5501
17.2224
17.6369
53.9973
29.7447
21.6505
18.0857
15.8802
14.3055
13.0991
12.1361
11.3465
10.6867
10.1278
9.64969
9.23738
8.87967
8.56507
8.28534
7.99421
7.71859
30.0325
21.7423
16.4569
13.7574
12.0448
10.8167
9.87456
9.12164
8.5033
7.98555
7.54563
7.16741
6.83875
6.54987
6.29054
6.05095
5.80032
5.55197
21.6948
18.1474
14.4011
12.1478
10.6428
9.54335
8.69251
8.00884
7.4451
6.97143
6.56756
6.21898
5.91464
5.64548
5.40256
5.17697
4.95117
4.72894
17.9346
16.098
13.3196
11.3822
10.0077
8.97641
8.16739
7.512
6.96862
6.51017
6.11795
5.77835
5.48094
5.21713
4.97894
4.75873
4.54621
4.34173
16.0218
14.8129
12.6663
10.9797
9.70763
8.7231
7.93734
7.29406
6.75704
6.30174
5.91076
5.57123
5.27318
5.00841
4.76969
4.55053
4.34442
4.15066
15.0035
13.973
12.2435
10.7611
9.57873
8.6332
7.86317
7.22521
6.68843
6.23081
5.83624
5.49248
5.18997
4.92101
4.67897
4.45829
4.25435
4.066
14.4735
13.4041
11.9618
10.6446
9.54246
8.63196
7.87603
7.24146
6.70269
6.24041
5.83995
5.48992
5.18128
4.90666
4.65997
4.43625
4.2318
4.04505
14.1909
13.0495
11.7763
10.5871
9.55566
8.68016
7.93889
7.30808
6.76727
6.29996
5.89304
5.53604
5.22048
4.93946
4.68732
4.45956
4.25285
4.06525
14.049
12.8347
11.6573
10.5632
9.59319
8.7517
8.02653
7.40115
6.85966
6.38829
5.97555
5.61199
5.28979
5.00251
4.74488
4.51272
4.30283
4.11292
13.9856
12.7105
11.5833
10.5567
9.63802
8.82875
8.12107
7.50335
6.96335
6.48978
6.07277
5.70388
5.37601
5.08322
4.8206
4.58418
4.3708
4.1779
13.9658
12.6487
11.5422
10.5566
9.67547
8.89309
8.20212
7.5934
7.05707
6.58368
6.1647
5.79261
5.46097
5.16427
4.89793
4.65814
4.44175
4.24606
13.9634
12.6154
11.5154
10.5564
9.70434
8.94555
8.27106
7.67261
7.14178
6.67054
6.25148
5.87792
5.544
5.24467
4.97562
4.73321
4.5143
4.31615
13.9718
12.6001
11.4957
10.5524
9.72271
8.98597
8.32928
7.74347
7.2209
6.75449
6.33781
5.96489
5.63048
5.32997
5.05935
4.81514
4.5943
4.39409
13.9863
12.5986
11.4817
10.5418
9.72572
9.00563
8.36527
7.79356
7.28199
6.82361
6.41235
6.04291
5.71054
5.41107
5.14073
4.89624
4.67468
4.4734
14.0019
12.6063
11.473
10.5256
9.7125
9.00209
8.37402
7.8147
7.3146
6.86618
6.46314
6.10023
5.77288
5.47707
5.20932
4.96654
4.74599
4.54514
14.015
12.618
11.47
10.51
9.69147
8.98248
8.3608
7.81056
7.32029
6.88137
6.48707
6.13181
5.81095
5.52053
5.25712
5.01773
4.79972
4.60073
14.023
12.6281
11.4726
10.5037
9.67924
8.9683
8.34823
7.80217
7.31752
6.88481
6.49664
6.14707
5.83124
5.54511
5.28521
5.04862
4.83276
4.6354
14.0223
12.6294
11.4778
10.5132
9.6922
8.98373
8.36512
7.81973
7.3352
6.90217
6.51337
6.16299
5.84626
5.55917
5.2983
5.06074
4.84392
4.64565
14.0089
12.6163
11.4812
10.5338
9.72389
9.01897
8.39773
7.84547
7.3518
6.90887
6.51038
6.15109
5.82641
5.53239
5.26558
5.023
4.802
4.60035
13.9901
12.6076
11.4942
10.5587
9.74733
9.03168
8.39516
7.82686
7.3181
6.86187
6.45215
6.08359
5.75155
5.45183
5.18079
4.93517
4.71216
4.5093
13.9707
12.6158
11.5196
10.5751
9.73918
8.99525
8.33226
7.74135
7.21476
6.7454
6.32658
5.95225
5.61696
5.31599
5.04512
4.80073
4.57965
4.37922
13.9746
12.6761
11.5738
10.5832
9.69448
8.90465
8.2072
7.593
7.05239
6.57571
6.15427
5.78052
5.44795
5.15102
4.88503
4.64595
4.43041
4.23555
14.0618
12.8603
11.6954
10.6047
9.63209
8.78532
8.05353
7.42111
6.87278
6.39512
5.97687
5.60877
5.28321
4.99396
4.73584
4.50458
4.29662
4.10898
14.3709
13.2962
11.9483
10.684
9.60107
8.69162
7.92828
7.28265
6.73155
6.25695
5.84493
5.48465
5.16757
4.88691
4.63719
4.41395
4.21353
4.03291
15.1986
14.2009
12.4278
10.8988
9.67977
8.70615
7.91304
7.2553
6.70144
6.22897
5.82153
5.46697
5.15602
4.88149
4.63765
4.41992
4.22462
4.0487
17.3205
15.8407
13.297
11.4031
10.0199
8.96845
8.13669
7.45852
6.89324
6.41419
6.00293
5.64613
5.3339
5.05863
4.81441
4.59655
4.40118
4.22525
22.7051
18.9709
14.9992
12.5969
10.9925
9.82127
8.91287
8.18015
7.5733
7.06107
6.62243
6.24248
5.9103
5.61762
5.358
5.12643
4.91863
4.73171
39.126
26.0241
19.26
15.987
13.9402
12.4758
11.3472
10.4392
9.68788
9.05398
8.51113
8.04081
7.62946
7.26684
6.94496
6.65776
6.39939
6.16829
119.754
53.3303
39.1253
32.745
28.7238
25.783
23.4729
21.5867
20.008
18.6633
17.5024
16.4898
15.5991
14.8099
14.1064
13.4765
12.9068
12.4018
0.0200808
0.0307892
0.0594686
0.0876612
0.116365
0.146165
0.178445
0.214235
0.253908
0.29735
0.344162
0.393873
0.445911
0.499762
0.554923
0.611015
0.667671
0.724657
0.781725
0.838757
0.895612
0.951842
1.00718
1.06157
1.11482
1.1669
1.21765
1.26705
1.31497
1.3615
1.40671
1.45106
1.49349
1.53428
1.57339
1.61091
1.64679
1.68075
1.71273
1.74267
1.77052
1.79624
1.81978
1.84111
1.86022
1.87709
1.89175
1.90419
1.91451
1.92253
1.92805
1.93123
1.93241
1.93173
1.92913
1.92459
1.91828
1.91017
1.90046
1.88911
1.87634
1.86212
1.84667
1.82993
1.81223
1.79348
1.77385
1.75329
1.73206
1.71009
1.68763
1.66462
1.64128
1.61755
1.59365
1.5695
1.5453
1.521
1.49677
1.47255
1.44847
1.42451
1.40077
1.37722
1.35396
1.33095
1.30828
1.28593
1.26395
1.24234
1.22109
1.20028
1.17988
1.15991
1.14036
1.12123
1.10253
1.08425
1.0664
1.04898
1.03197
1.01538
0.999206
0.983441
0.968084
0.95313
0.938567
0.924378
0.910561
0.897113
0.884018
0.871316
0.85901
0.847076
0.835502
0.824267
0.813362
0.802774
0.792495
0.782512
0.772819
0.763407
0.75427
0.745398
0.736788
0.728427
0.720311
0.712432
0.704782
0.697345
0.690116
0.683084
0.67625
0.669596
0.663141
0.65687
0.650771
0.644836
0.639067
0.633453
0.628012
0.622746
0.617647
0.612705
0.607908
0.603247
0.598713
0.594299
0.589999
0.585805
0.581709
0.577706
0.57379
0.569959
0.56621
0.56254
0.558946
0.555426
0.551976
0.548593
0.545274
0.542014
0.538809
0.535654
0.532545
0.529484
0.526471
0.523497
0.520538
0.517585
0.514599
0.511582
0.50846
0.505702
0.502376
0.498352
0.49457
0.489899
0.483239
0.451201
0.12814
0.0746544
0.0777319
0.0919831
0.111066
0.133051
0.157213
0.182926
0.209675
0.237101
0.264953
0.292757
0.32025
0.347295
0.373814
0.399796
0.425247
0.450212
0.474722
0.498822
0.522523
0.545821
0.568709
0.591202
0.61329
0.634977
0.656247
0.677111
0.697579
0.717721
0.737661
0.757702
0.777342
0.796375
0.814718
0.832326
0.849138
0.865086
0.880118
0.894194
0.907275
0.919328
0.930327
0.940248
0.949075
0.956796
0.963408
0.968909
0.973303
0.976575
0.978704
0.979555
0.979431
0.978336
0.976275
0.973262
0.969343
0.964545
0.958924
0.952514
0.945378
0.93755
0.929099
0.920061
0.910504
0.900455
0.889972
0.879085
0.867856
0.856314
0.84452
0.832501
0.820314
0.807982
0.795557
0.78306
0.770538
0.758008
0.745513
0.733063
0.720694
0.708416
0.69626
0.68423
0.672353
0.660634
0.649094
0.63774
0.626585
0.615632
0.604883
0.59435
0.584039
0.573953
0.564093
0.55446
0.545055
0.535876
0.526922
0.518194
0.509687
0.501402
0.493335
0.485483
0.477845
0.470418
0.46321
0.456221
0.449437
0.44285
0.436452
0.430249
0.424242
0.418425
0.412791
0.407334
0.402048
0.396926
0.391963
0.387154
0.382494
0.377978
0.373601
0.369361
0.365252
0.361272
0.357416
0.35368
0.350064
0.346565
0.343176
0.339891
0.336709
0.333621
0.33064
0.327764
0.324981
0.322282
0.319664
0.317122
0.314658
0.312273
0.309966
0.307733
0.305571
0.303475
0.301442
0.299468
0.297552
0.29569
0.293881
0.292119
0.290404
0.288731
0.2871
0.285508
0.283955
0.282438
0.280956
0.279509
0.278094
0.276712
0.275359
0.274036
0.272741
0.271476
0.270241
0.26904
0.267869
0.26673
0.265621
0.26454
0.2635
0.262624
0.261587
0.26098
0.259881
0.260582
0.261774
0.264437
0.315645
0.147519
0.126954
0.129703
0.14086
0.156557
0.174915
0.194736
0.215154
0.235569
0.255418
0.274868
0.293867
0.312428
0.330588
0.348406
0.365935
0.383231
0.400336
0.417284
0.434095
0.45078
0.467341
0.483779
0.500085
0.516252
0.532263
0.54811
0.563781
0.579272
0.594582
0.60968
0.624454
0.638815
0.652696
0.666041
0.678796
0.690913
0.702346
0.713056
0.723007
0.732167
0.740511
0.748016
0.754664
0.760442
0.765344
0.769364
0.772507
0.774775
0.776097
0.776516
0.77611
0.774917
0.772952
0.770235
0.766798
0.762669
0.757887
0.752487
0.746509
0.739993
0.732982
0.725514
0.717633
0.709378
0.700789
0.6919
0.682751
0.673374
0.663805
0.654076
0.64422
0.634267
0.624245
0.614181
0.604102
0.594029
0.583985
0.573989
0.56406
0.554212
0.544461
0.534819
0.525298
0.515909
0.506661
0.497563
0.488622
0.479842
0.471227
0.46278
0.454507
0.44641
0.43849
0.430749
0.423187
0.415802
0.408595
0.401564
0.394708
0.388025
0.381514
0.375172
0.368998
0.362989
0.357145
0.351466
0.345946
0.340582
0.335369
0.330306
0.325393
0.320627
0.316003
0.311518
0.307168
0.302948
0.298855
0.294885
0.291034
0.287297
0.283674
0.280159
0.27675
0.273444
0.270237
0.267128
0.264125
0.261222
0.258411
0.255686
0.253045
0.250483
0.248
0.245595
0.243263
0.241001
0.238806
0.236676
0.23461
0.232608
0.230667
0.228785
0.226961
0.225191
0.223472
0.221803
0.220184
0.218614
0.21709
0.215607
0.214164
0.212759
0.21139
0.210054
0.208751
0.20748
0.206239
0.205027
0.203843
0.202687
0.201557
0.200453
0.199373
0.19832
0.197295
0.196299
0.195333
0.194396
0.193492
0.192619
0.191791
0.191052
0.190339
0.189858
0.188999
0.189436
0.190203
0.193388
0.510897
0.219521
0.174003
0.166617
0.170643
0.180253
0.192976
0.207477
0.222885
0.238619
0.254435
0.269986
0.28531
0.300401
0.315283
0.329993
0.344574
0.359066
0.373503
0.38791
0.402305
0.416697
0.431087
0.445471
0.459839
0.474175
0.488459
0.502668
0.516774
0.530745
0.544548
0.558131
0.571429
0.584379
0.596922
0.609002
0.620567
0.63157
0.641964
0.651709
0.660768
0.669108
0.6767
0.683521
0.689551
0.694776
0.699187
0.702778
0.705551
0.70751
0.7086
0.708879
0.708379
0.707134
0.705166
0.702496
0.699154
0.69517
0.690579
0.685414
0.679715
0.673519
0.666866
0.659794
0.652343
0.64455
0.636454
0.62809
0.619492
0.610693
0.601726
0.592621
0.583409
0.574115
0.564768
0.555391
0.546006
0.536637
0.5273
0.518015
0.508798
0.499662
0.490621
0.481685
0.472867
0.464174
0.455614
0.447196
0.438924
0.430803
0.422837
0.415027
0.407379
0.399893
0.39257
0.385412
0.378417
0.371586
0.364918
0.358411
0.352065
0.345878
0.339847
0.333972
0.32825
0.322678
0.317256
0.311981
0.306851
0.301862
0.297011
0.292296
0.287715
0.283266
0.278945
0.27475
0.270677
0.266723
0.262885
0.259158
0.255541
0.252029
0.248621
0.245312
0.2421
0.238983
0.235958
0.233022
0.230175
0.227417
0.224743
0.22215
0.219633
0.217191
0.214821
0.212521
0.210288
0.208121
0.206017
0.203972
0.201988
0.200061
0.198191
0.196375
0.194612
0.192899
0.191235
0.189618
0.188053
0.186537
0.185064
0.183632
0.182238
0.18088
0.179557
0.178267
0.177008
0.17578
0.17458
0.173409
0.172265
0.171148
0.170056
0.168989
0.167947
0.166931
0.165944
0.164985
0.164054
0.163152
0.162282
0.161445
0.160651
0.159921
0.15925
0.158742
0.158047
0.158112
0.158601
0.160742
0.681417
0.282491
0.213691
0.196715
0.194527
0.19905
0.207364
0.217934
0.229859
0.24256
0.255672
0.268982
0.282291
0.295602
0.308896
0.322177
0.335463
0.348775
0.362132
0.375551
0.389041
0.402608
0.416247
0.42995
0.443703
0.457485
0.471269
0.485026
0.498721
0.512315
0.525761
0.539004
0.551983
0.564641
0.576919
0.588761
0.600113
0.610925
0.621149
0.630741
0.639663
0.647878
0.655357
0.662073
0.668005
0.673138
0.677461
0.680967
0.683657
0.685534
0.686564
0.686796
0.686249
0.684955
0.682934
0.680214
0.676825
0.672797
0.668166
0.662968
0.657241
0.651023
0.644356
0.637277
0.629827
0.622043
0.613963
0.605624
0.59706
0.588305
0.57939
0.570348
0.561206
0.551992
0.542733
0.533452
0.524171
0.514911
0.505691
0.496529
0.487438
0.478434
0.469529
0.460734
0.452058
0.443511
0.435099
0.42683
0.418708
0.410737
0.402921
0.395264
0.387766
0.380429
0.373254
0.366241
0.35939
0.352699
0.34617
0.339799
0.333586
0.327528
0.321625
0.315873
0.310272
0.304817
0.299508
0.294341
0.289315
0.284426
0.279671
0.275048
0.270554
0.266187
0.261944
0.257822
0.253818
0.24993
0.246153
0.242485
0.238923
0.235463
0.232103
0.228841
0.225673
0.222596
0.219609
0.216708
0.213892
0.21116
0.208509
0.205935
0.203437
0.201011
0.198655
0.196366
0.194144
0.191984
0.189886
0.187847
0.185865
0.183939
0.182068
0.180249
0.178481
0.176762
0.175091
0.173465
0.171885
0.170351
0.168859
0.167408
0.165995
0.164618
0.163275
0.161966
0.160689
0.159442
0.158225
0.157036
0.155874
0.154739
0.15363
0.152547
0.151488
0.150459
0.149459
0.148488
0.147544
0.146629
0.145744
0.144892
0.144081
0.143324
0.142631
0.142057
0.141486
0.14132
0.141586
0.142885
0.819297
0.334348
0.245861
0.22035
0.213285
0.21387
0.218901
0.226635
0.2361
0.246697
0.258034
0.269858
0.282003
0.294325
0.306794
0.319397
0.332128
0.344989
0.357984
0.371119
0.384393
0.397806
0.411347
0.425004
0.438756
0.452578
0.466438
0.480302
0.494129
0.507875
0.521483
0.534894
0.548049
0.560886
0.573348
0.585375
0.596911
0.607905
0.618305
0.628066
0.637145
0.645506
0.653117
0.659948
0.665979
0.671193
0.675576
0.679124
0.681835
0.683711
0.684739
0.684952
0.684368
0.683014
0.680916
0.678101
0.674602
0.670452
0.665687
0.660345
0.654466
0.648089
0.641257
0.634008
0.626384
0.618423
0.610165
0.601647
0.592905
0.583973
0.574885
0.565672
0.556363
0.546988
0.537571
0.528138
0.51871
0.509309
0.499955
0.490662
0.481449
0.472328
0.463311
0.454411
0.445636
0.436994
0.428494
0.420141
0.411941
0.403896
0.396011
0.388287
0.380724
0.373326
0.366092
0.359025
0.352123
0.345386
0.338812
0.3324
0.326148
0.320055
0.314118
0.308334
0.302703
0.29722
0.291883
0.28669
0.281638
0.276725
0.271946
0.267299
0.262782
0.258391
0.254124
0.249978
0.24595
0.242037
0.238235
0.234543
0.230956
0.227471
0.224086
0.220799
0.217605
0.214503
0.211491
0.208564
0.205722
0.202962
0.200282
0.197679
0.195151
0.192695
0.190309
0.187991
0.185738
0.183548
0.181419
0.179348
0.177335
0.175378
0.173474
0.171622
0.169821
0.168068
0.166363
0.164703
0.163087
0.161516
0.159986
0.158497
0.157046
0.155631
0.154252
0.152906
0.151593
0.150311
0.149059
0.147835
0.14664
0.145472
0.14433
0.143215
0.142124
0.14106
0.140024
0.139016
0.138035
0.137082
0.136159
0.135268
0.134417
0.133613
0.132871
0.132223
0.131639
0.131341
0.131416
0.132072
0.925904
0.375731
0.271419
0.238991
0.227835
0.225614
0.228251
0.233974
0.24173
0.250884
0.261025
0.271875
0.283255
0.295055
0.307169
0.31954
0.332141
0.344958
0.357986
0.37122
0.384656
0.398286
0.412094
0.426064
0.440169
0.454378
0.468656
0.482959
0.497238
0.511441
0.525508
0.539379
0.552991
0.566281
0.579187
0.591647
0.603602
0.614996
0.625775
0.635891
0.645299
0.65396
0.66184
0.668908
0.675143
0.680526
0.685044
0.688692
0.691467
0.693372
0.694408
0.694598
0.693959
0.692515
0.690296
0.687334
0.683662
0.679318
0.674338
0.668764
0.662635
0.655995
0.648885
0.641348
0.633426
0.625161
0.616592
0.607759
0.598698
0.589448
0.580041
0.57051
0.560887
0.5512
0.541477
0.531742
0.522019
0.512329
0.502692
0.493125
0.483644
0.474264
0.464996
0.455852
0.446842
0.437973
0.429254
0.420691
0.412287
0.404048
0.395976
0.388075
0.380343
0.372782
0.365393
0.358176
0.35113
0.344255
0.337548
0.331008
0.324634
0.318423
0.312372
0.30648
0.300743
0.29516
0.289726
0.284439
0.279296
0.274293
0.269429
0.2647
0.260102
0.255633
0.251289
0.247068
0.242967
0.238983
0.235111
0.231349
0.227694
0.224144
0.220694
0.217344
0.214088
0.210926
0.207854
0.204869
0.201969
0.199152
0.196416
0.193757
0.191174
0.188663
0.186223
0.183852
0.181546
0.179304
0.177124
0.175003
0.17294
0.170933
0.168979
0.167078
0.165228
0.163427
0.161673
0.159964
0.158301
0.156681
0.155102
0.153565
0.152065
0.150603
0.149177
0.147785
0.146426
0.145099
0.143803
0.142536
0.141298
0.140088
0.138905
0.137748
0.136617
0.135512
0.134434
0.133383
0.132359
0.131363
0.130397
0.129462
0.128564
0.127711
0.126914
0.126196
0.125558
0.125117
0.12499
0.125247
1.00501
0.408058
0.291501
0.253644
0.239274
0.234971
0.235921
0.240262
0.246871
0.255082
0.264469
0.274742
0.285704
0.297214
0.309181
0.321542
0.334252
0.347283
0.360612
0.374225
0.388105
0.402233
0.416587
0.431141
0.445862
0.460711
0.475644
0.490612
0.50556
0.52043
0.535159
0.549683
0.563936
0.57785
0.591359
0.604397
0.616902
0.628814
0.640077
0.65064
0.660456
0.669484
0.677688
0.685038
0.69151
0.697085
0.701753
0.705506
0.708344
0.710272
0.711298
0.711435
0.710704
0.709124
0.706738
0.703579
0.699682
0.695086
0.689831
0.683958
0.677512
0.670535
0.663074
0.655172
0.646874
0.638221
0.629258
0.620025
0.610561
0.600903
0.591089
0.581152
0.571125
0.561037
0.550917
0.540791
0.530683
0.520615
0.510607
0.500677
0.490842
0.481117
0.471513
0.462043
0.452716
0.44354
0.434524
0.425672
0.41699
0.408482
0.40015
0.391997
0.384024
0.37623
0.368618
0.361185
0.353932
0.346857
0.339959
0.333234
0.326682
0.3203
0.314086
0.308035
0.302146
0.296416
0.290841
0.285417
0.280143
0.275014
0.270027
0.265179
0.260466
0.255886
0.251435
0.247109
0.242907
0.238824
0.234857
0.231003
0.227258
0.223619
0.220084
0.21665
0.213313
0.210071
0.20692
0.203859
0.200885
0.197994
0.195185
0.192455
0.189802
0.187223
0.184715
0.182277
0.179906
0.177599
0.175355
0.173172
0.171047
0.168979
0.166965
0.165005
0.163095
0.161236
0.159425
0.15766
0.15594
0.154263
0.152629
0.151036
0.149482
0.147966
0.146487
0.145042
0.143632
0.142254
0.140907
0.139591
0.138304
0.137046
0.135815
0.134612
0.133435
0.132284
0.13116
0.130063
0.128992
0.127949
0.126936
0.125953
0.125006
0.1241
0.123246
0.122461
0.121754
0.121195
0.120863
0.120841
1.06075
0.432748
0.307152
0.265195
0.248422
0.242572
0.242369
0.245787
0.251669
0.259317
0.268292
0.278296
0.289126
0.300635
0.312722
0.325313
0.338354
0.351805
0.365635
0.379817
0.394326
0.409135
0.424211
0.439522
0.455027
0.470679
0.486428
0.502218
0.517987
0.533671
0.549201
0.564506
0.579515
0.594156
0.608358
0.622052
0.635171
0.647653
0.65944
0.670478
0.680719
0.690121
0.698648
0.70627
0.712963
0.71871
0.723499
0.727326
0.730191
0.732102
0.733072
0.733107
0.732231
0.730462
0.727856
0.724446
0.720268
0.715364
0.709776
0.703547
0.696725
0.689354
0.681482
0.673155
0.66442
0.655321
0.645903
0.636209
0.626281
0.616157
0.605876
0.595473
0.584981
0.574433
0.563858
0.553283
0.542732
0.532229
0.521795
0.511447
0.501204
0.49108
0.481088
0.471239
0.461545
0.452013
0.44265
0.433463
0.424457
0.415634
0.406998
0.398552
0.390295
0.382228
0.374352
0.366666
0.359168
0.351858
0.344732
0.33779
0.331027
0.324443
0.318033
0.311795
0.305725
0.29982
0.294076
0.288491
0.28306
0.27778
0.272648
0.267659
0.262811
0.258099
0.25352
0.249072
0.244749
0.24055
0.23647
0.232506
0.228655
0.224913
0.221277
0.217745
0.214313
0.210978
0.207737
0.204588
0.201527
0.198552
0.19566
0.192849
0.190116
0.187459
0.184875
0.182361
0.179916
0.177538
0.175223
0.172969
0.170775
0.168639
0.166559
0.164532
0.162558
0.160634
0.158759
0.156932
0.15515
0.153412
0.151718
0.150065
0.148451
0.146877
0.145339
0.143838
0.142371
0.140937
0.139536
0.138166
0.136827
0.135516
0.134235
0.132981
0.131754
0.130553
0.12938
0.128233
0.127113
0.126021
0.124957
0.123924
0.122925
0.121966
0.121054
0.120202
0.119424
0.118762
0.11827
0.11802
1.09711
0.451119
0.319248
0.274338
0.255839
0.24886
0.247925
0.250797
0.256288
0.263681
0.272525
0.282521
0.29346
0.305192
0.317611
0.330635
0.344202
0.358266
0.372785
0.387723
0.403044
0.418712
0.434688
0.450926
0.467378
0.48399
0.500702
0.517449
0.534163
0.55077
0.567195
0.583363
0.599194
0.614614
0.629545
0.643916
0.657658
0.670706
0.683
0.694487
0.705118
0.714851
0.723651
0.73149
0.738344
0.744199
0.749046
0.752881
0.755707
0.757535
0.758379
0.758245
0.757152
0.755131
0.752241
0.748517
0.743999
0.738728
0.732749
0.726109
0.718856
0.711037
0.702702
0.6939
0.684678
0.675084
0.665164
0.654964
0.644526
0.633891
0.6231
0.612188
0.601192
0.590143
0.579073
0.56801
0.556978
0.546003
0.535106
0.524305
0.513618
0.503061
0.492648
0.482389
0.472295
0.462375
0.452637
0.443085
0.433725
0.424561
0.415595
0.406828
0.398263
0.389899
0.381735
0.373772
0.366007
0.358439
0.351065
0.343884
0.336891
0.330085
0.323461
0.317017
0.310749
0.304653
0.298726
0.292963
0.28736
0.281915
0.276623
0.27148
0.266483
0.261627
0.256909
0.252325
0.247872
0.243546
0.239343
0.23526
0.231293
0.227438
0.223693
0.220055
0.216519
0.213083
0.209744
0.206498
0.203344
0.200277
0.197296
0.194397
0.191578
0.188837
0.18617
0.183575
0.181051
0.178594
0.176202
0.173873
0.171605
0.169396
0.167244
0.165147
0.163103
0.161111
0.159168
0.157274
0.155426
0.153624
0.151865
0.150148
0.148472
0.146836
0.145237
0.143675
0.142149
0.140657
0.139198
0.137771
0.136375
0.13501
0.133674
0.132366
0.131086
0.129834
0.128608
0.127409
0.126237
0.125093
0.123978
0.122893
0.121841
0.120826
0.119855
0.118939
0.118089
0.117335
0.116713
0.116278
1.11659
0.464049
0.328396
0.281567
0.261944
0.254259
0.252919
0.255554
0.260942
0.268349
0.27732
0.287553
0.298837
0.311022
0.323994
0.337668
0.351977
0.366863
0.382277
0.398172
0.414502
0.431221
0.448276
0.465614
0.483173
0.500889
0.518693
0.536509
0.55426
0.571864
0.589241
0.606305
0.622975
0.63917
0.65481
0.669822
0.684136
0.697686
0.710413
0.722265
0.733195
0.743163
0.752137
0.76009
0.767004
0.772865
0.777668
0.781412
0.784104
0.785754
0.786379
0.785991
0.784592
0.782241
0.778993
0.774885
0.769958
0.764257
0.757828
0.750719
0.742981
0.734663
0.725817
0.716492
0.70674
0.69661
0.686149
0.675405
0.664422
0.653242
0.641908
0.630457
0.618926
0.607348
0.595755
0.584177
0.57264
0.561169
0.549784
0.538508
0.527356
0.516346
0.50549
0.494801
0.484289
0.473964
0.463831
0.453898
0.444168
0.434646
0.425334
0.416233
0.407345
0.398669
0.390205
0.381951
0.373907
0.366069
0.358435
0.351003
0.343769
0.336731
0.329883
0.323223
0.316747
0.310451
0.30433
0.298381
0.292599
0.28698
0.281521
0.276216
0.271062
0.266056
0.261191
0.256466
0.251876
0.247417
0.243085
0.238876
0.234788
0.230815
0.226956
0.223205
0.219561
0.216019
0.212577
0.209231
0.205978
0.202815
0.19974
0.196749
0.19384
0.19101
0.188257
0.185577
0.18297
0.180431
0.177959
0.175551
0.173205
0.17092
0.168693
0.166522
0.164405
0.162341
0.160328
0.158364
0.156447
0.154576
0.15275
0.150967
0.149226
0.147525
0.145862
0.144238
0.14265
0.141097
0.139578
0.138092
0.136638
0.135215
0.133822
0.132458
0.131123
0.129816
0.128536
0.127284
0.126059
0.124861
0.123693
0.122554
0.121447
0.120376
0.119347
0.118366
0.117447
0.116608
0.115876
0.115289
1.11909
0.471611
0.334853
0.287194
0.267059
0.259087
0.257665
0.260361
0.265926
0.273621
0.282989
0.293727
0.305624
0.318526
0.332317
0.346906
0.362215
0.37818
0.394737
0.411831
0.4294
0.447384
0.465719
0.484335
0.503159
0.522113
0.541117
0.560083
0.578926
0.597555
0.615881
0.633817
0.651275
0.668173
0.684431
0.699975
0.714737
0.728653
0.741669
0.753735
0.764809
0.774856
0.783848
0.791763
0.798586
0.804308
0.808928
0.812449
0.814879
0.816232
0.816521
0.815769
0.813954
0.811183
0.807491
0.80292
0.79751
0.79131
0.784367
0.77673
0.768452
0.759585
0.75018
0.740291
0.729969
0.719266
0.70823
0.69691
0.685352
0.673601
0.661699
0.649685
0.637598
0.625471
0.613337
0.601228
0.589168
0.577185
0.5653
0.553535
0.541906
0.53043
0.519122
0.507992
0.497053
0.486312
0.475777
0.465454
0.455347
0.44546
0.435795
0.426353
0.417135
0.408141
0.39937
0.390821
0.382491
0.374379
0.36648
0.358793
0.351313
0.344037
0.336962
0.330082
0.323393
0.316893
0.310575
0.304435
0.29847
0.292674
0.287044
0.281574
0.276261
0.2711
0.266086
0.261216
0.256486
0.251891
0.247427
0.243091
0.238878
0.234785
0.230808
0.226943
0.223187
0.219537
0.215989
0.21254
0.209186
0.205924
0.202753
0.199667
0.196666
0.193745
0.190903
0.188136
0.185443
0.18282
0.180265
0.177776
0.17535
0.172986
0.170682
0.168435
0.166243
0.164105
0.162019
0.159983
0.157995
0.156055
0.154159
0.152308
0.150499
0.148732
0.147004
0.145315
0.143663
0.142047
0.140466
0.138919
0.137404
0.135922
0.13447
0.133048
0.131656
0.130293
0.128957
0.127649
0.126369
0.125117
0.123894
0.122701
0.121539
0.120412
0.119324
0.118281
0.117293
0.116376
0.115548
0.114835
1.11012
0.47487
0.339097
0.291577
0.271519
0.26369
0.262539
0.265628
0.271694
0.280003
0.290099
0.30168
0.314533
0.328501
0.343461
0.359312
0.375964
0.393339
0.411359
0.42995
0.449034
0.468533
0.488364
0.508442
0.528677
0.548977
0.569246
0.58939
0.609311
0.628914
0.648105
0.666793
0.684893
0.702323
0.719006
0.734873
0.749862
0.763917
0.776989
0.789036
0.800022
0.809921
0.81871
0.826374
0.832903
0.838295
0.84255
0.845677
0.847688
0.848604
0.84842
0.847141
0.84481
0.841511
0.837279
0.832156
0.826184
0.819411
0.811886
0.803661
0.794788
0.78532
0.775312
0.764817
0.753888
0.742577
0.730936
0.719014
0.706858
0.694513
0.682024
0.669431
0.656771
0.644082
0.631396
0.618744
0.606154
0.593651
0.581259
0.568998
0.556887
0.544942
0.533177
0.521604
0.510234
0.499076
0.488137
0.477423
0.466937
0.456684
0.446665
0.436882
0.427335
0.418023
0.408945
0.4001
0.391485
0.383098
0.374935
0.366992
0.359267
0.351754
0.34445
0.337351
0.33045
0.323745
0.31723
0.310901
0.304752
0.298779
0.292978
0.287343
0.28187
0.276554
0.271391
0.266376
0.261505
0.256773
0.252177
0.247713
0.243375
0.23916
0.235065
0.231085
0.227218
0.223458
0.219803
0.216249
0.212793
0.209432
0.206163
0.202982
0.199887
0.196874
0.193942
0.191087
0.188306
0.185597
0.182958
0.180387
0.17788
0.175436
0.173052
0.170727
0.168459
0.166246
0.164085
0.161976
0.159916
0.157904
0.155938
0.154017
0.15214
0.150305
0.14851
0.146755
0.145037
0.143357
0.141713
0.140103
0.138527
0.136983
0.135472
0.133991
0.13254
0.131118
0.129726
0.128361
0.127025
0.125717
0.124438
0.123189
0.121971
0.120786
0.119639
0.118535
0.117481
0.116491
0.115577
0.114759
1.09163
0.475643
0.342
0.295272
0.275798
0.268554
0.268101
0.272
0.278996
0.288365
0.299653
0.312556
0.326856
0.342386
0.359008
0.376605
0.395069
0.414299
0.434193
0.454654
0.475579
0.496867
0.518413
0.540111
0.561853
0.583533
0.605044
0.626281
0.647144
0.667536
0.687364
0.706541
0.724988
0.742631
0.759406
0.775252
0.790119
0.803963
0.816746
0.828437
0.839012
0.848453
0.856745
0.86388
0.869857
0.874676
0.878343
0.880869
0.882268
0.882551
0.881737
0.879779
0.876812
0.872871
0.867994
0.862224
0.855603
0.84818
0.840004
0.831128
0.821604
0.811486
0.80083
0.78969
0.778119
0.766171
0.753898
0.74135
0.728576
0.715621
0.70253
0.689345
0.676105
0.662845
0.6496
0.636401
0.623277
0.610253
0.597352
0.584596
0.572003
0.55959
0.547371
0.535357
0.52356
0.511989
0.500649
0.489548
0.478688
0.468073
0.457706
0.447586
0.437713
0.428088
0.418709
0.409573
0.400677
0.39202
0.383596
0.375403
0.367436
0.359691
0.352162
0.344846
0.337738
0.330832
0.324123
0.317606
0.311277
0.30513
0.29916
0.293362
0.287731
0.282263
0.276952
0.271794
0.266784
0.261918
0.257191
0.252599
0.248137
0.243802
0.23959
0.235496
0.231516
0.227647
0.223886
0.220228
0.216671
0.21321
0.209843
0.206566
0.203377
0.200272
0.197249
0.194305
0.191436
0.188642
0.185918
0.183263
0.180674
0.178149
0.175686
0.173282
0.170937
0.168647
0.166411
0.164227
0.162094
0.16001
0.157973
0.155981
0.154034
0.15213
0.150268
0.148445
0.146662
0.144917
0.143208
0.141534
0.139896
0.13829
0.136717
0.135176
0.133666
0.132185
0.130735
0.129313
0.12792
0.126555
0.12522
0.123914
0.122639
0.121397
0.120191
0.119026
0.117908
0.116847
0.115854
0.114944
1.06334
0.473667
0.343669
0.298633
0.280434
0.274415
0.275261
0.280569
0.289153
0.300271
0.313468
0.32843
0.344922
0.362754
0.381763
0.401798
0.42272
0.44439
0.466675
0.489439
0.51255
0.535876
0.559288
0.582659
0.605866
0.628792
0.651326
0.673365
0.694811
0.715577
0.735583
0.754758
0.773037
0.790368
0.806702
0.822
0.836229
0.849362
0.861377
0.872258
0.881993
0.890574
0.897997
0.904261
0.909368
0.913325
0.91614
0.917827
0.9184
0.917857
0.916166
0.913415
0.90967
0.904962
0.899329
0.892812
0.885453
0.8773
0.868403
0.858812
0.848582
0.837766
0.826419
0.814596
0.802351
0.789739
0.776811
0.763618
0.750209
0.736631
0.722929
0.709145
0.695317
0.681484
0.667679
0.653934
0.640277
0.626734
0.613329
0.600083
0.587015
0.57414
0.561474
0.549027
0.536811
0.524834
0.513103
0.501623
0.490398
0.479431
0.468723
0.458276
0.448087
0.438158
0.428485
0.419066
0.409899
0.400979
0.392303
0.383867
0.375666
0.367695
0.359949
0.352424
0.345113
0.338012
0.331115
0.324417
0.317913
0.311596
0.305463
0.299506
0.293722
0.288105
0.28265
0.277353
0.272207
0.267209
0.262354
0.257637
0.253055
0.248601
0.244274
0.240067
0.235978
0.232001
0.228135
0.224374
0.220716
0.217156
0.213692
0.210321
0.207038
0.203842
0.200728
0.197695
0.194739
0.191859
0.18905
0.186311
0.18364
0.181034
0.178491
0.176009
0.173586
0.171219
0.168907
0.166649
0.164442
0.162285
0.160176
0.158113
0.156096
0.154123
0.152192
0.150302
0.148452
0.14664
0.144866
0.143129
0.141426
0.139758
0.138124
0.136522
0.134951
0.133411
0.131901
0.130421
0.128971
0.127549
0.126157
0.124794
0.123462
0.122163
0.120899
0.119674
0.118494
0.117366
0.1163
0.115308
1.02292
0.467395
0.343929
0.302088
0.286355
0.282674
0.285888
0.29378
0.305153
0.31927
0.33566
0.353976
0.37394
0.395313
0.417876
0.441421
0.46575
0.490671
0.515995
0.541544
0.567148
0.592645
0.617884
0.642731
0.667058
0.690757
0.713728
0.73589
0.757169
0.777506
0.796852
0.815168
0.832423
0.848593
0.863661
0.877616
0.890449
0.902154
0.91273
0.922175
0.930491
0.937681
0.943747
0.948693
0.952527
0.955256
0.956887
0.95744
0.956897
0.955214
0.952477
0.948747
0.94405
0.938419
0.931888
0.924495
0.916281
0.907293
0.897579
0.887188
0.876173
0.864588
0.852487
0.839925
0.826955
0.813632
0.800008
0.786133
0.772058
0.757829
0.743491
0.729085
0.714653
0.70023
0.685852
0.671549
0.65735
0.643281
0.629366
0.615626
0.602079
0.588741
0.575627
0.562747
0.550113
0.537732
0.525612
0.513756
0.502169
0.490853
0.479809
0.469038
0.458538
0.448308
0.438347
0.42865
0.419215
0.410038
0.401114
0.392439
0.384008
0.375815
0.367856
0.360125
0.352616
0.345323
0.338241
0.331365
0.324688
0.318204
0.311909
0.305797
0.299861
0.294098
0.2885
0.283064
0.277784
0.272656
0.267673
0.262833
0.258129
0.253558
0.249115
0.244796
0.240596
0.236513