/*--------------------------------*- C++ -*----------------------------------*\
  =========                 |
  \\      /  F ield         | OpenFOAM: The Open Source CFD Toolbox
   \\    /   O peration     | Website:  https://openfoam.org
    \\  /    A nd           | Version:  6
     \\/     M anipulation  |
\*---------------------------------------------------------------------------*/
FoamFile
{
    version     2.0;
    format      ascii;
    class       volScalarField;
    location    "100";
    object      k;
}
// * * * * * * * * * * * * * * * * * * * * * * * * * * * * * * * * * * * * * //

dimensions      [0 2 -2 0 0 0 0];

internalField   nonuniform List<scalar> 
12225
(
0.222224
0.0806611
0.0596266
0.0501905
0.0441463
0.0397174
0.0362634
0.0334696
0.0311553
0.0292064
0.0275465
0.0261232
0.0249001
0.0238549
0.0229783
0.0222939
0.0218745
0.0223975
0.295417
0.178863
0.144778
0.127407
0.115862
0.107213
0.100336
0.0946725
0.0899025
0.0858222
0.0822941
0.0792214
0.0765347
0.0741846
0.0721318
0.0703647
0.0687721
0.067735
0.322573
0.22872
0.189579
0.167896
0.153171
0.142032
0.133104
0.125699
0.119417
0.114007
0.109296
0.105162
0.101513
0.098281
0.0954062
0.092846
0.0905121
0.0884948
0.336234
0.260462
0.2204
0.196289
0.179466
0.166596
0.156212
0.147554
0.140177
0.133798
0.128221
0.123305
0.118944
0.115053
0.111563
0.108413
0.105535
0.102983
0.344576
0.283005
0.244318
0.219064
0.200841
0.186686
0.175167
0.165507
0.157241
0.150066
0.143771
0.138202
0.133243
0.128799
0.12479
0.121151
0.117829
0.114863
0.350272
0.299795
0.263702
0.238276
0.219222
0.204138
0.191728
0.181247
0.172232
0.164375
0.157457
0.151317
0.14583
0.140896
0.13643
0.132367
0.128662
0.125339
0.354387
0.312565
0.279619
0.25475
0.235364
0.219674
0.206595
0.195454
0.185811
0.177367
0.169903
0.163256
0.157297
0.151923
0.147049
0.14261
0.138565
0.134924
0.357417
0.322318
0.292654
0.268857
0.24957
0.233582
0.220051
0.208407
0.198256
0.189318
0.181383
0.174291
0.167914
0.162148
0.15691
0.152136
0.147789
0.14386
0.359633
0.329697
0.303175
0.280781
0.261948
0.245947
0.232179
0.220194
0.20966
0.200327
0.192
0.184529
0.17779
0.171682
0.166125
0.161058
0.156441
0.152253
0.361213
0.33516
0.311462
0.290628
0.272518
0.256756
0.242959
0.2308
0.220015
0.210392
0.201762
0.193984
0.186945
0.18055
0.174723
0.169405
0.164552
0.160135
0.362296
0.339057
0.317752
0.298487
0.281275
0.265958
0.252322
0.240152
0.229252
0.219454
0.210615
0.202612
0.195344
0.188723
0.182678
0.177154
0.172104
0.167491
0.362942
0.341467
0.321907
0.303973
0.28765
0.272878
0.259538
0.247496
0.236614
0.226762
0.217824
0.209696
0.202288
0.195521
0.18933
0.183662
0.178469
0.173711
0.363365
0.343072
0.324848
0.308072
0.292622
0.278453
0.265501
0.253687
0.242919
0.233103
0.224146
0.215963
0.208477
0.20162
0.195332
0.189561
0.184262
0.179392
0.363651
0.344119
0.326915
0.311185
0.296636
0.28317
0.270733
0.259279
0.248749
0.239077
0.230197
0.222042
0.214549
0.20766
0.201323
0.195491
0.190119
0.185166
0.363819
0.34463
0.328011
0.313049
0.299293
0.28655
0.274722
0.263747
0.253581
0.244178
0.235491
0.227469
0.220064
0.213227
0.206913
0.201079
0.195687
0.190697
0.363904
0.344742
0.328283
0.313707
0.300484
0.288333
0.277084
0.266636
0.256925
0.247903
0.239524
0.231746
0.22453
0.217836
0.211626
0.205865
0.200518
0.19555
0.363942
0.34466
0.328079
0.313554
0.300565
0.288769
0.277944
0.267939
0.258657
0.250027
0.241995
0.234516
0.22755
0.221063
0.21502
0.209389
0.20414
0.199246
0.363966
0.344593
0.327864
0.313254
0.300294
0.288635
0.278024
0.268278
0.259267
0.250901
0.243114
0.235854
0.229078
0.222751
0.216839
0.211314
0.206147
0.201311
0.363983
0.344673
0.328015
0.313465
0.300542
0.288897
0.27828
0.268515
0.259478
0.251082
0.243262
0.235968
0.229159
0.222797
0.21685
0.21129
0.206088
0.201219
0.363958
0.344823
0.328395
0.313936
0.300902
0.288974
0.277966
0.267756
0.258262
0.249425
0.241197
0.233535
0.226399
0.219752
0.213559
0.207787
0.202405
0.197386
0.363871
0.344743
0.328182
0.31331
0.299657
0.287018
0.275283
0.264384
0.254274
0.244905
0.236229
0.228195
0.220758
0.213871
0.207489
0.201571
0.19608
0.190981
0.363563
0.343765
0.326194
0.310076
0.295172
0.281411
0.268733
0.257079
0.246385
0.23658
0.227589
0.219342
0.211767
0.2048
0.198383
0.192463
0.186996
0.181941
0.362797
0.340958
0.321084
0.302859
0.286283
0.2713
0.257792
0.245612
0.23461
0.224652
0.215618
0.207401
0.199909
0.193061
0.186788
0.181027
0.175727
0.170844
0.361232
0.3353
0.311749
0.290904
0.272711
0.256825
0.24288
0.230561
0.219609
0.209817
0.201017
0.193075
0.185879
0.179334
0.173364
0.167901
0.16289
0.158286
0.358478
0.325784
0.2975
0.274109
0.254777
0.238542
0.224672
0.212651
0.202109
0.19278
0.184461
0.176999
0.170269
0.164173
0.15863
0.153571
0.148942
0.144697
0.354108
0.311269
0.277787
0.252528
0.232875
0.216979
0.203717
0.192401
0.182584
0.173965
0.166325
0.159501
0.15337
0.147832
0.142807
0.138231
0.134051
0.130224
0.347422
0.290001
0.251819
0.225991
0.207045
0.192204
0.180048
0.169793
0.160968
0.153263
0.146463
0.140411
0.134987
0.130098
0.125671
0.121645
0.117971
0.114616
0.336655
0.258644
0.217781
0.19325
0.176158
0.163086
0.152513
0.143665
0.136094
0.129513
0.123725
0.118589
0.113997
0.109867
0.106134
0.102744
0.099653
0.0968405
0.316172
0.209256
0.169944
0.149111
0.1352
0.124743
0.116365
0.109407
0.10349
0.0983763
0.0939006
0.0899457
0.0864236
0.0832668
0.0804215
0.0778453
0.0754997
0.0733814
0.264394
0.117743
0.0863817
0.0722956
0.0634178
0.0569253
0.0518254
0.0476614
0.0441763
0.0412076
0.038645
0.0364097
0.0344433
0.0327013
0.0311484
0.0297577
0.0285001
0.0273854
6.86712e-05
0.000480584
0.000927683
0.00136448
0.00180824
0.00226738
0.00276344
0.00331268
0.00392133
0.00458792
0.00530634
0.00606948
0.00686838
0.00769508
0.00854151
0.00940182
0.01027
0.0111426
0.0120154
0.0128869
0.0137545
0.014611
0.0154522
0.0162776
0.0170841
0.0178714
0.0186366
0.01938
0.0200991
0.0207954
0.0214694
0.0221279
0.0227575
0.0233603
0.0239358
0.0244854
0.0250091
0.0255041
0.0259675
0.0263994
0.0267982
0.027164
0.0274957
0.0277932
0.0280563
0.0282848
0.028479
0.0286391
0.0287663
0.0288614
0.0289169
0.0289336
0.0289217
0.0288809
0.0288116
0.0287127
0.0285873
0.0284346
0.028258
0.0280567
0.0278344
0.0275902
0.027328
0.0270465
0.0267507
0.0264395
0.026116
0.0257788
0.025432
0.0250746
0.0247104
0.0243384
0.023962
0.0235805
0.0231967
0.0228101
0.0224233
0.0220357
0.0216496
0.0212643
0.0208819
0.0205018
0.0201257
0.019753
0.0193852
0.0190218
0.0186641
0.0183117
0.0179654
0.0176251
0.0172906
0.0169632
0.0166426
0.0163289
0.0160218
0.0157216
0.0154281
0.0151413
0.0148613
0.014588
0.0143213
0.0140611
0.0138075
0.0135602
0.0133193
0.0130847
0.0128561
0.0126334
0.0124165
0.0122052
0.0119994
0.0117995
0.0116055
0.0114173
0.0112344
0.0110568
0.010884
0.0107161
0.0105529
0.0103941
0.0102396
0.0100894
0.0099433
0.00980114
0.00966286
0.00952831
0.00939739
0.00926997
0.00914593
0.00902504
0.00890723
0.00879234
0.00868034
0.00857107
0.00846458
0.00836085
0.00825963
0.00816082
0.00806437
0.00797023
0.00787858
0.0077894
0.00770257
0.00761793
0.00753534
0.00745465
0.00737576
0.00729857
0.00722298
0.00714889
0.00707619
0.00700481
0.00693468
0.00686576
0.00679801
0.00673139
0.00666586
0.00660136
0.00653787
0.00647533
0.00641369
0.00635289
0.0062929
0.00623361
0.00617505
0.00611723
0.0060601
0.00600352
0.00594723
0.00589115
0.0058345
0.00577862
0.00571958
0.00566299
0.00560161
0.00554219
0.00547655
0.00540258
0.00530679
0.00493361
0.000438089
0.00271385
0.00442959
0.00567759
0.00674408
0.00776226
0.00878712
0.00983947
0.010924
0.0120388
0.01318
0.0143428
0.0155222
0.0167136
0.0179126
0.0191156
0.0203189
0.0215197
0.0227151
0.0239028
0.0250797
0.0262435
0.0273916
0.0285219
0.0296321
0.0307202
0.0317839
0.032821
0.0338288
0.0348047
0.0357449
0.0366453
0.0375094
0.038339
0.0391335
0.0398921
0.0406133
0.0412956
0.0419374
0.0425375
0.0430947
0.043608
0.0440766
0.0444997
0.0448771
0.0452084
0.0454936
0.0457331
0.0459272
0.0460769
0.0461808
0.0462343
0.0462466
0.0462174
0.0461492
0.0460426
0.045899
0.0457197
0.0455068
0.0452618
0.0449869
0.0446838
0.0443547
0.0440013
0.0436261
0.0432308
0.0428171
0.0423865
0.0419411
0.0414824
0.0410126
0.040533
0.0400455
0.0395514
0.0390525
0.0385498
0.038045
0.0375389
0.0370329
0.0365278
0.0360247
0.0355243
0.0350274
0.0345347
0.034047
0.0335645
0.0330881
0.032618
0.0321547
0.0316985
0.0312494
0.0308078
0.030374
0.0299482
0.0295304
0.0291208
0.0287194
0.0283262
0.0279412
0.0275645
0.027196
0.0268357
0.0264834
0.0261392
0.0258029
0.0254745
0.0251539
0.0248409
0.0245353
0.0242371
0.023946
0.0236632
0.0233881
0.0231204
0.0228597
0.0226058
0.0223584
0.0221173
0.0218824
0.0216536
0.0214305
0.0212131
0.0210012
0.0207947
0.0205935
0.0203974
0.0202062
0.0200199
0.0198382
0.019661
0.019488
0.0193191
0.0191543
0.0189935
0.0188362
0.0186823
0.0185319
0.018385
0.0182415
0.0181015
0.0179652
0.0178324
0.017703
0.0175767
0.0174533
0.0173327
0.0172146
0.0170989
0.0169856
0.0168744
0.0167652
0.0166579
0.0165525
0.0164489
0.0163469
0.0162466
0.0161478
0.0160506
0.0159547
0.0158603
0.0157671
0.0156752
0.0155843
0.0154945
0.0154059
0.0153183
0.0152317
0.0151459
0.0150604
0.0149751
0.0148894
0.0148034
0.0147156
0.0146269
0.0145352
0.0144399
0.0143425
0.014242
0.0141181
0.0136862
0.00107981
0.00534529
0.00790346
0.00968297
0.011173
0.0125474
0.0138804
0.0152027
0.0165256
0.017852
0.0191819
0.0205143
0.021848
0.023182
0.0245148
0.0258448
0.0271704
0.0284897
0.0298012
0.0311031
0.0323936
0.0336709
0.0349331
0.0361786
0.0374052
0.0386113
0.0397946
0.0409531
0.0420845
0.0431869
0.0442579
0.0452959
0.046299
0.0472658
0.0481945
0.0490831
0.0499296
0.0507319
0.0514883
0.0521969
0.0528562
0.0534649
0.0540218
0.0545259
0.0549766
0.0553734
0.0557162
0.0560049
0.05624
0.0564218
0.0565512
0.0566247
0.0566474
0.056621
0.0565477
0.0564286
0.0562653
0.0560599
0.0558142
0.0555305
0.0552109
0.0548578
0.0544735
0.0540602
0.0536204
0.0531564
0.0526704
0.0521646
0.0516411
0.051102
0.0505493
0.049985
0.049411
0.048829
0.0482407
0.0476478
0.0470517
0.0464539
0.0458556
0.045258
0.0446622
0.0440692
0.0434799
0.042895
0.0423154
0.0417417
0.0411745
0.0406143
0.0400616
0.0395168
0.03898
0.0384516
0.0379319
0.037421
0.0369193
0.0364267
0.0359434
0.0354693
0.0350047
0.0345494
0.0341034
0.0336666
0.0332392
0.0328209
0.0324117
0.0320116
0.0316204
0.031238
0.0308643
0.0304991
0.0301424
0.0297941
0.0294543
0.0291228
0.0287993
0.0284836
0.0281756
0.027875
0.0275817
0.0272954
0.0270161
0.0267435
0.0264775
0.026218
0.0259647
0.0257175
0.0254763
0.0252409
0.0250111
0.0247868
0.0245677
0.0243537
0.0241447
0.0239405
0.0237409
0.0235457
0.0233548
0.0231682
0.0229856
0.0228077
0.0226344
0.0224654
0.0223003
0.022139
0.0219812
0.0218268
0.0216755
0.0215274
0.0213821
0.0212395
0.0210995
0.020962
0.0208268
0.020694
0.0205633
0.0204347
0.0203082
0.0201836
0.0200608
0.0199399
0.0198206
0.0197029
0.0195867
0.0194721
0.0193592
0.0192478
0.0191378
0.0190289
0.0189208
0.0188133
0.0187061
0.0185989
0.0184913
0.018383
0.018274
0.0181626
0.0180532
0.0179471
0.0178398
0.0175276
0.00174982
0.0076091
0.0107789
0.0129064
0.0146418
0.0162049
0.0176925
0.0191485
0.0205921
0.0220303
0.0234654
0.0248979
0.0263273
0.027753
0.0291741
0.0305899
0.0319994
0.0334018
0.0347959
0.0361807
0.0375551
0.0389177
0.0402672
0.041602
0.0429203
0.0442203
0.0455
0.0467572
0.0479896
0.0491949
0.0503705
0.0515141
0.0526231
0.0536948
0.0547266
0.0557161
0.0566605
0.0575574
0.0584045
0.0591997
0.059941
0.0606266
0.0612552
0.0618254
0.0623364
0.0627874
0.0631782
0.0635086
0.0637788
0.0639893
0.0641409
0.0642321
0.0642656
0.0642439
0.0641688
0.0640419
0.0638652
0.0636408
0.0633709
0.0630579
0.0627045
0.0623131
0.0618863
0.0614268
0.0609372
0.0604202
0.0598782
0.0593139
0.0587295
0.0581275
0.0575101
0.0568796
0.0562379
0.0555872
0.0549293
0.054266
0.0535989
0.0529296
0.0522595
0.0515901
0.0509223
0.0502575
0.0495966
0.0489405
0.04829
0.0476459
0.0470089
0.0463794
0.0457581
0.0451454
0.0445414
0.0439467
0.0433615
0.042786
0.0422204
0.0416648
0.0411194
0.0405843
0.0400594
0.0395447
0.0390404
0.0385462
0.0380622
0.0375884
0.0371245
0.0366707
0.0362267
0.0357924
0.0353677
0.0349524
0.0345465
0.0341498
0.0337623
0.0333838
0.0330141
0.0326531
0.0323005
0.0319562
0.03162
0.0312917
0.0309711
0.030658
0.0303523
0.0300538
0.0297623
0.0294776
0.0291997
0.0289282
0.0286631
0.0284042
0.0281512
0.027904
0.0276625
0.0274264
0.0271955
0.0269697
0.0267489
0.0265328
0.0263214
0.0261148
0.0259128
0.0257154
0.0255223
0.0253334
0.0251485
0.0249674
0.0247899
0.024616
0.0244454
0.024278
0.0241136
0.0239521
0.0237934
0.0236374
0.023484
0.0233331
0.0231845
0.0230382
0.0228941
0.0227521
0.0226121
0.022474
0.0223377
0.0222034
0.0220715
0.0219413
0.0218127
0.0216855
0.0215594
0.0214343
0.0213098
0.0211857
0.0210619
0.020938
0.0208143
0.0206899
0.020567
0.0204497
0.020334
0.0200837
0.00233577
0.00943815
0.0130867
0.0154928
0.0174204
0.019125
0.0207215
0.0222667
0.0237883
0.0252988
0.0268037
0.0283045
0.0298015
0.0312941
0.0327818
0.0342641
0.0357402
0.0372098
0.0386721
0.0401266
0.0415722
0.0430082
0.0444331
0.0458457
0.0472443
0.0486269
0.0499913
0.0513354
0.0526564
0.0539517
0.0552184
0.0564536
0.0576541
0.0588167
0.0599384
0.061016
0.0620464
0.0630268
0.0639545
0.0648267
0.0656414
0.0663963
0.0670897
0.06772
0.0682863
0.0687874
0.069223
0.0695928
0.0698968
0.0701355
0.0703096
0.070419
0.0704652
0.0704507
0.0703772
0.0702466
0.0700611
0.0698231
0.069535
0.0691996
0.0688195
0.0683976
0.0679368
0.06744
0.0669101
0.0663498
0.0657622
0.0651498
0.0645154
0.0638615
0.0631906
0.0625052
0.0618075
0.0610997
0.0603839
0.0596621
0.0589359
0.0582072
0.0574775
0.0567483
0.0560208
0.0552964
0.054576
0.0538607
0.0531514
0.0524489
0.051754
0.0510672
0.0503891
0.0497202
0.0490608
0.0484113
0.0477721
0.0471433
0.0465251
0.0459178
0.0453215
0.0447361
0.0441618
0.0435985
0.0430463
0.0425052
0.041975
0.0414557
0.0409473
0.0404495
0.0399625
0.0394859
0.0390196
0.0385636
0.0381177
0.0376817
0.0372555
0.0368389
0.0364319
0.0360342
0.0356456
0.0352659
0.034895
0.0345326
0.0341786
0.0338327
0.0334948
0.0331648
0.0328423
0.0325273
0.0322196
0.0319189
0.0316251
0.031338
0.0310574
0.0307832
0.030515
0.0302529
0.0299965
0.0297456
0.0295002
0.02926
0.0290248
0.0287947
0.0285695
0.0283492
0.0281334
0.0279221
0.0277152
0.0275124
0.0273136
0.0271186
0.0269273
0.0267396
0.0265552
0.0263741
0.0261961
0.026021
0.0258489
0.0256795
0.0255127
0.0253485
0.0251868
0.0250273
0.0248701
0.0247151
0.024562
0.0244111
0.0242622
0.0241153
0.0239702
0.0238266
0.0236844
0.0235433
0.0234033
0.0232641
0.0231255
0.0229874
0.02285
0.0227131
0.0225774
0.022447
0.0223163
0.0220968
0.00280949
0.010856
0.0148858
0.0175258
0.0196216
0.0214542
0.0231505
0.024776
0.0263653
0.0279363
0.0294976
0.0310532
0.0326046
0.0341519
0.035695
0.0372335
0.0387671
0.0402954
0.0418182
0.0433349
0.0448449
0.0463472
0.0478409
0.0493244
0.0507962
0.0522543
0.0536963
0.0551198
0.0565219
0.0578995
0.0592495
0.0605683
0.0618526
0.0630986
0.0643029
0.0654617
0.0665718
0.0676297
0.0686322
0.0695766
0.07046
0.0712802
0.0720349
0.0727226
0.0733416
0.0738911
0.0743703
0.0747788
0.0751166
0.0753841
0.0755818
0.0757105
0.0757713
0.0757663
0.0756973
0.0755664
0.0753759
0.0751284
0.0748268
0.0744739
0.0740726
0.0736261
0.0731374
0.0726097
0.0720461
0.0714497
0.0708235
0.0701704
0.0694935
0.0687954
0.0680789
0.0673465
0.0666008
0.0658441
0.0650786
0.0643064
0.0635295
0.0627497
0.0619686
0.0611879
0.060409
0.0596331
0.0588615
0.0580953
0.0573354
0.0565826
0.0558378
0.0551017
0.0543748
0.0536576
0.0529505
0.052254
0.0515683
0.0508938
0.0502306
0.0495789
0.0489388
0.0483105
0.0476938
0.047089
0.0464959
0.0459146
0.0453449
0.0447869
0.0442403
0.0437052
0.0431814
0.0426687
0.0421671
0.0416763
0.0411963
0.0407268
0.0402677
0.0398189
0.0393801
0.0389512
0.038532
0.0381222
0.0377218
0.0373305
0.036948
0.0365743
0.0362091
0.0358521
0.0355033
0.0351624
0.0348293
0.0345036
0.0341853
0.0338741
0.0335699
0.0332724
0.0329814
0.0326968
0.0324184
0.0321459
0.0318793
0.0316182
0.0313625
0.0311121
0.0308669
0.0306268
0.0303915
0.030161
0.029935
0.0297134
0.0294961
0.0292829
0.0290736
0.0288681
0.0286663
0.0284679
0.028273
0.0280812
0.0278926
0.027707
0.0275242
0.0273442
0.0271668
0.026992
0.0268196
0.0266495
0.0264816
0.0263159
0.0261523
0.0259908
0.0258312
0.0256732
0.0255169
0.025362
0.0252083
0.0250556
0.0249039
0.0247531
0.0246032
0.0244545
0.0243073
0.0241641
0.024019
0.023814
0.00317538
0.01193
0.0162623
0.0191004
0.0213458
0.0232978
0.0250912
0.0267964
0.0284528
0.0300822
0.0316967
0.0333026
0.0349028
0.0364989
0.0380914
0.0396805
0.0412661
0.0428481
0.0444263
0.0460005
0.04757
0.0491342
0.0506919
0.0522418
0.0537821
0.0553108
0.0568255
0.0583234
0.0598015
0.0612564
0.0626844
0.0640819
0.065445
0.0667696
0.0680517
0.0692874
0.0704729
0.0716043
0.0726783
0.0736914
0.0746407
0.0755236
0.0763375
0.0770806
0.0777511
0.0783479
0.07887
0.079317
0.0796888
0.0799857
0.0802082
0.0803574
0.0804345
0.080441
0.080379
0.0802501
0.0800576
0.0798041
0.0794927
0.0791263
0.0787082
0.0782416
0.0777298
0.0771763
0.0765842
0.075957
0.0752978
0.0746098
0.0738962
0.0731599
0.0724038
0.0716306
0.0708431
0.0700437
0.0692349
0.0684187
0.0675974
0.0667728
0.0659468
0.065121
0.064297
0.0634761
0.0626597
0.0618488
0.0610445
0.0602477
0.0594592
0.0586799
0.0579102
0.0571507
0.0564019
0.0556642
0.0549379
0.0542233
0.0535207
0.0528301
0.0521519
0.0514859
0.0508323
0.0501912
0.0495624
0.048946
0.0483418
0.04775
0.0471702
0.0466025
0.0460466
0.0455025
0.04497
0.044449
0.0439392
0.0434405
0.0429527
0.0424757
0.0420093
0.0415532
0.0411073
0.0406714
0.0402453
0.0398286
0.0394214
0.0390233
0.0386341
0.0382537
0.0378818
0.0375182
0.0371627
0.0368151
0.0364752
0.0361429
0.0358178
0.0354998
0.0351887
0.0348843
0.0345863
0.0342946
0.0340091
0.0337294
0.0334554
0.033187
0.0329239
0.0326662
0.0324135
0.0321657
0.0319227
0.0316844
0.0314505
0.0312208
0.0309954
0.0307739
0.0305563
0.0303424
0.0301321
0.0299252
0.0297216
0.0295212
0.0293238
0.0291294
0.0289377
0.0287488
0.0285625
0.0283787
0.0281972
0.028018
0.027841
0.0276661
0.0274933
0.0273223
0.027153
0.0269852
0.0268189
0.0266539
0.02649
0.0263272
0.0261657
0.0260056
0.0258472
0.0256919
0.0255339
0.0253344
0.00344619
0.0127286
0.0172985
0.0203022
0.0226789
0.0247405
0.0266264
0.0284101
0.0301336
0.0318218
0.0334891
0.0351441
0.0367914
0.0384339
0.0400728
0.0417091
0.0433433
0.0449755
0.0466058
0.0482341
0.0498599
0.0514826
0.0531011
0.0547141
0.0563196
0.0579157
0.0594997
0.0610686
0.0626191
0.0641476
0.0656502
0.0671229
0.0685613
0.069961
0.0713178
0.0726273
0.0738852
0.0750874
0.0762301
0.0773097
0.0783227
0.0792663
0.0801378
0.0809349
0.0816558
0.0822991
0.0828637
0.083349
0.083755
0.0840817
0.0843299
0.0845006
0.0845952
0.0846148
0.0845617
0.084437
0.0842448
0.083988
0.0836696
0.0832929
0.0828613
0.0823783
0.0818473
0.0812719
0.0806556
0.0800018
0.0793142
0.0785959
0.0778504
0.0770807
0.0762899
0.075481
0.0746568
0.0738199
0.0729728
0.072118
0.0712575
0.0703934
0.0695278
0.0686622
0.0677983
0.0669377
0.0660816
0.0652312
0.0643877
0.063552
0.062725
0.0619074
0.0611
0.0603032
0.0595175
0.0587434
0.0579813
0.0572314
0.0564939
0.0557692
0.0550572
0.0543581
0.053672
0.0529988
0.0523385
0.0516912
0.0510567
0.0504351
0.049826
0.0492296
0.0486455
0.0480737
0.047514
0.0469662
0.0464302
0.0459058
0.0453927
0.0448909
0.0444
0.04392
0.0434505
0.0429915
0.0425426
0.0421036
0.0416744
0.0412547
0.0408443
0.0404429
0.0400505
0.0396667
0.0392913
0.0389242
0.038565
0.0382137
0.0378699
0.0375335
0.0372043
0.036882
0.0365665
0.0362575
0.0359548
0.0356583
0.0353677
0.0350829
0.0348036
0.0345298
0.0342613
0.0339978
0.0337393
0.0334856
0.0332365
0.0329919
0.0327516
0.0325154
0.0322833
0.0320551
0.0318305
0.0316096
0.0313921
0.031178
0.030967
0.0307591
0.0305542
0.0303522
0.0301528
0.0299561
0.0297619
0.02957
0.0293805
0.0291932
0.029008
0.0288247
0.0286433
0.0284635
0.0282853
0.0281086
0.0279332
0.0277591
0.0275864
0.0274153
0.0272459
0.0270789
0.0269092
0.0267105
0.00363617
0.0133053
0.0180598
0.0212005
0.0236905
0.0258502
0.0278217
0.0296801
0.0314691
0.0332154
0.0349352
0.0366387
0.0383323
0.0400198
0.0417036
0.0433854
0.0450661
0.0467465
0.0484267
0.050107
0.0517869
0.0534659
0.055143
0.0568168
0.0584853
0.0601463
0.061797
0.0634344
0.0650548
0.0666544
0.068229
0.0697741
0.0712852
0.0727575
0.0741864
0.0755671
0.076895
0.0781657
0.079375
0.0805189
0.0815938
0.0825964
0.0835239
0.0843737
0.0851439
0.0858327
0.0864392
0.0869625
0.0874025
0.0877593
0.0880336
0.0882264
0.088339
0.0883731
0.0883305
0.0882119
0.0880219
0.0877638
0.0874408
0.0870564
0.0866141
0.0861175
0.0855704
0.0849764
0.0843393
0.0836627
0.0829503
0.0822057
0.0814322
0.0806333
0.0798121
0.0789717
0.0781151
0.0772451
0.0763643
0.0754752
0.0745801
0.0736812
0.0727804
0.0718796
0.0709806
0.0700847
0.0691935
0.0683083
0.06743
0.0665599
0.0656987
0.0648474
0.0640065
0.0631766
0.0623584
0.0615521
0.0607583
0.0599772
0.059209
0.0584539
0.0577122
0.0569838
0.0562688
0.0555673
0.0548793
0.0542047
0.0535434
0.0528953
0.0522604
0.0516385
0.0510295
0.0504332
0.0498494
0.049278
0.0487187
0.0481715
0.047636
0.0471122
0.0465997
0.0460983
0.0456079
0.0451283
0.0446591
0.0442002
0.0437514
0.0433124
0.042883
0.042463
0.0420521
0.0416502
0.0412569
0.0408722
0.0404957
0.0401272
0.0397666
0.0394135
0.0390678
0.0387293
0.0383977
0.0380729
0.0377546
0.0374426
0.0371368
0.0368369
0.0365427
0.0362541
0.035971
0.0356931
0.0354202
0.0351523
0.0348891
0.0346306
0.0343764
0.0341266
0.0338809
0.0336392
0.0334014
0.0331673
0.0329367
0.0327097
0.0324859
0.0322654
0.0320479
0.0318334
0.0316218
0.0314128
0.0312065
0.0310027
0.0308012
0.0306021
0.0304051
0.0302102
0.0300172
0.029826
0.0296365
0.0294485
0.029262
0.029077
0.0288935
0.0287117
0.0285317
0.0283535
0.0281729
0.0279725
0.00375917
0.0137041
0.0185968
0.021849
0.0244353
0.0266807
0.0287292
0.0306566
0.0325076
0.0343099
0.036081
0.0378323
0.0395714
0.0413033
0.0430313
0.0447576
0.046484
0.0482114
0.0499404
0.0516714
0.0534042
0.0551381
0.0568724
0.0586054
0.0603352
0.0620594
0.0637752
0.0654791
0.0671674
0.0688359
0.0704802
0.0720955
0.0736769
0.0752194
0.0767179
0.0781674
0.0795629
0.0808997
0.0821733
0.0833794
0.0845141
0.0855738
0.0865556
0.0874566
0.0882746
0.089008
0.0896554
0.090216
0.0906896
0.0910764
0.0913769
0.0915921
0.0917236
0.091773
0.0917417
0.0916307
0.0914441
0.0911863
0.0908605
0.0904703
0.0900195
0.0895118
0.0889511
0.0883413
0.0876863
0.0869899
0.086256
0.0854883
0.0846904
0.0838657
0.0830177
0.0821497
0.0812646
0.0803654
0.0794548
0.0785355
0.0776099
0.0766801
0.0757484
0.0748165
0.0738863
0.0729594
0.0720372
0.0711211
0.0702123
0.0693118
0.0684205
0.0675393
0.0666689
0.06581
0.064963
0.0641283
0.0633065
0.0624979
0.0617026
0.0609208
0.0601528
0.0593986
0.0586583
0.0579318
0.0572192
0.0565205
0.0558355
0.0551642
0.0545065
0.0538621
0.053231
0.0526131
0.052008
0.0514156
0.0508358
0.0502684
0.049713
0.0491696
0.0486379
0.0481176
0.0476085
0.0471105
0.0466233
0.0461466
0.0456802
0.045224
0.0447775
0.0443407
0.0439133
0.043495
0.0430856
0.0426849
0.0422927
0.0419087
0.0415326
0.0411644
0.0408037
0.0404503
0.0401041
0.0397647
0.039432
0.0391058
0.0387859
0.038472
0.038164
0.0378617
0.0375649
0.0372735
0.0369873
0.0367061
0.0364298
0.0361581
0.035891
0.0356283
0.0353698
0.0351155
0.0348651
0.0346185
0.0343756
0.0341363
0.0339004
0.0336677
0.0334383
0.0332119
0.0329885
0.0327679
0.03255
0.0323346
0.0321217
0.0319112
0.031703
0.0314969
0.0312928
0.0310905
0.0308901
0.0306913
0.0304941
0.0302985
0.0301045
0.0299123
0.0297218
0.029533
0.0293421
0.0291368
0.00382408
0.0139505
0.0189451
0.0222871
0.0249545
0.0272739
0.0293905
0.0313806
0.0332891
0.0351444
0.036965
0.0387632
0.0405474
0.0423235
0.0440956
0.0458665
0.0476384
0.0494128
0.0511904
0.0529719
0.0547571
0.0565456
0.0583362
0.0601276
0.0619176
0.0637038
0.065483
0.0672517
0.0690058
0.0707411
0.0724527
0.0741356
0.0757847
0.0773945
0.0789598
0.0804752
0.0819355
0.0833356
0.0846706
0.0859362
0.0871282
0.0882427
0.0892765
0.0902267
0.0910909
0.0918672
0.0925542
0.0931512
0.0936577
0.0940738
0.0944003
0.094638
0.0947886
0.0948538
0.0948344
0.0947317
0.0945496
0.0942931
0.0939657
0.0935713
0.0931137
0.0925967
0.0920246
0.0914012
0.0907308
0.0900172
0.0892646
0.0884767
0.0876574
0.0868102
0.0859387
0.0850463
0.0841362
0.0832113
0.0822746
0.0813287
0.0803762
0.0794194
0.0784604
0.0775012
0.0765437
0.0755896
0.0746402
0.0736971
0.0727614
0.0718342
0.0709166
0.0700093
0.0691131
0.0682286
0.0673564
0.066497
0.0656507
0.0648179
0.0639989
0.0631938
0.0624028
0.0616259
0.0608634
0.0601151
0.059381
0.0586612
0.0579554
0.0572637
0.0565859
0.0559218
0.0552714
0.0546343
0.0540105
0.0533997
0.0528018
0.0522165
0.0516436
0.0510828
0.050534
0.0499969
0.0494714
0.048957
0.0484537
0.0479611
0.047479
0.0470073
0.0465455
0.0460936
0.0456513
0.0452182
0.0447942
0.0443791
0.0439726
0.0435744
0.0431843
0.0428022
0.0424278
0.0420608
0.041701
0.0413482
0.0410022
0.0406628
0.0403298
0.0400029
0.039682
0.0393669
0.0390574
0.0387534
0.0384546
0.0381609
0.0378722
0.0375882
0.0373088
0.0370339
0.0367634
0.036497
0.0362346
0.0359762
0.0357215
0.0354704
0.0352229
0.0349787
0.0347378
0.0345
0.0342652
0.0340333
0.0338042
0.0335778
0.0333539
0.0331324
0.0329133
0.0326963
0.0324815
0.0322686
0.0320575
0.0318482
0.0316406
0.0314347
0.0312305
0.0310281
0.0308275
0.0306284
0.0304279
0.0302171
0.00382979
0.0140533
0.0191276
0.0225436
0.0252796
0.0276634
0.0298404
0.0318872
0.0338491
0.0357549
0.0376236
0.0394683
0.0412979
0.043119
0.0449362
0.046753
0.0485718
0.0503944
0.0522218
0.0540547
0.055893
0.0577362
0.0595832
0.0614325
0.0632819
0.0651286
0.0669695
0.0688008
0.0706182
0.0724173
0.0741929
0.07594
0.077653
0.0793263
0.0809544
0.0825317
0.0840527
0.0855122
0.086905
0.0882265
0.0894723
0.0906384
0.0917214
0.0927181
0.093626
0.0944431
0.095168
0.0957997
0.0963378
0.0967823
0.097134
0.0973937
0.0975632
0.0976443
0.0976369
0.0975431
0.0973656
0.0971111
0.0967831
0.0963855
0.0959223
0.0953976
0.0948157
0.0941807
0.0934969
0.0927684
0.0919994
0.0911939
0.0903558
0.089489
0.0885969
0.0876832
0.0867512
0.0858039
0.0848443
0.0838753
0.0828993
0.0819189
0.0809362
0.0799533
0.078972
0.0779941
0.0770212
0.0760546
0.0750956
0.0741454
0.0732048
0.0722749
0.0713564
0.0704498
0.0695558
0.0686749
0.0678075
0.0669538
0.0661142
0.0652889
0.064478
0.0636816
0.0628998
0.0621326
0.0613799
0.0606417
0.059918
0.0592086
0.0585133
0.0578321
0.0571648
0.0565111
0.0558709
0.055244
0.0546302
0.0540293
0.0534409
0.052865
0.0523012
0.0517493
0.051209
0.0506802
0.0501626
0.0496559
0.0491598
0.0486742
0.0481988
0.0477334
0.0472776
0.0468312
0.046394
0.0459658
0.0455463
0.0451352
0.0447324
0.0443375
0.0439504
0.0435709
0.0431986
0.0428335
0.0424752
0.0421235
0.0417783
0.0414393
0.0411063
0.0407792
0.0404578
0.0401419
0.0398313
0.0395258
0.0392253
0.0389296
0.0386386
0.0383522
0.0380701
0.0377922
0.0375184
0.0372486
0.0369826
0.0367203
0.0364616
0.0362063
0.0359543
0.0357055
0.0354598
0.035217
0.0349771
0.0347399
0.0345053
0.0342732
0.0340434
0.033816
0.0335906
0.0333673
0.033146
0.0329264
0.0327087
0.0324927
0.0322785
0.0320661
0.0318557
0.0316468
0.0314372
0.0312205
0.00379713
0.014037
0.019164
0.0226429
0.0254382
0.0278789
0.0301107
0.0322103
0.0342233
0.0361787
0.038096
0.0399886
0.0418659
0.043735
0.0456007
0.0474667
0.0493358
0.0512097
0.0530897
0.0549763
0.0568694
0.0587684
0.0606721
0.0625789
0.0644863
0.0663916
0.0682913
0.0701817
0.0720583
0.0739164
0.0757509
0.0775565
0.0793277
0.0810586
0.0827436
0.0843769
0.0859529
0.0874661
0.0889114
0.0902837
0.0915787
0.092792
0.09392
0.0949596
0.0959079
0.096763
0.0975231
0.0981872
0.0987549
0.0992262
0.0996017
0.0998824
0.10007
0.100166
0.100171
0.100086
0.0999129
0.0996605
0.0993322
0.0989321
0.0984643
0.097933
0.0973426
0.0966974
0.096002
0.0952605
0.0944772
0.0936563
0.0928019
0.0919179
0.091008
0.0900757
0.0891247
0.0881579
0.0871786
0.0861895
0.0851934
0.0841926
0.0831895
0.0821861
0.0811845
0.0801863
0.0791932
0.0782065
0.0772277
0.0762577
0.0752977
0.0743484
0.0734108
0.0724855
0.071573
0.0706738
0.0697884
0.068917
0.0680599
0.0672174
0.0663896
0.0655765
0.0647783
0.063995
0.0632264
0.0624726
0.0617335
0.0610089
0.0602987
0.0596028
0.058921
0.058253
0.0575988
0.056958
0.0563304
0.0557159
0.0551142
0.054525
0.0539481
0.0533832
0.0528301
0.0522886
0.0517584
0.0512392
0.0507308
0.0502329
0.0497453
0.0492677
0.0487998
0.0483415
0.0478924
0.0474524
0.0470211
0.0465983
0.0461837
0.0457773
0.0453786
0.0449875
0.0446037
0.0442271
0.0438574
0.0434943
0.0431377
0.0427874
0.0424432
0.0421048
0.0417721
0.041445
0.0411232
0.0408065
0.0404949
0.0401882
0.0398861
0.0395886
0.0392955
0.0390066
0.0387219
0.0384412
0.0381643
0.0378912
0.0376217
0.0373556
0.0370929
0.0368335
0.0365772
0.0363238
0.0360734
0.0358257
0.0355807
0.0353383
0.0350982
0.0348605
0.0346249
0.0343915
0.03416
0.0339305
0.0337028
0.033477
0.033253
0.033031
0.0328109
0.0325926
0.0323744
0.0321517
0.00373369
0.0139311
0.0190933
0.0226139
0.0254584
0.0279525
0.0302363
0.0323879
0.0344532
0.0364612
0.0384314
0.0403774
0.0423087
0.0442324
0.0461535
0.0480756
0.0500014
0.0519325
0.0538699
0.0558141
0.0577646
0.0597208
0.0616812
0.063644
0.0656068
0.0675665
0.0695198
0.0714628
0.0733912
0.0753004
0.0771852
0.0790405
0.0808606
0.0826399
0.0843727
0.0860532
0.0876757
0.0892346
0.0907247
0.0921408
0.0934782
0.0947327
0.0959004
0.0969778
0.0979621
0.0988509
0.0996427
0.100336
0.100931
0.101426
0.101823
0.102123
0.102327
0.102438
0.102454
0.102377
0.102208
0.101957
0.101629
0.101226
0.100754
0.100217
0.0996189
0.0989648
0.098259
0.0975061
0.0967103
0.095876
0.0950074
0.0941084
0.093183
0.0922349
0.0912674
0.0902841
0.0892878
0.0882817
0.0872683
0.0862503
0.0852299
0.0842094
0.0831906
0.0821754
0.0811653
0.0801619
0.0791664
0.0781799
0.0772037
0.0762384
0.075285
0.074344
0.0734161
0.0725018
0.0716014
0.0707153
0.0698438
0.068987
0.0681451
0.0673182
0.0665064
0.0657096
0.0649278
0.064161
0.063409
0.0626717
0.0619491
0.0612408
0.0605468
0.0598668
0.0592006
0.058548
0.0579088
0.0572827
0.0566695
0.056069
0.0554808
0.0549047
0.0543405
0.053788
0.0532468
0.0527166
0.0521973
0.0516886
0.0511902
0.0507018
0.0502233
0.0497542