/*--------------------------------*- C++ -*----------------------------------*\
  =========                 |
  \\      /  F ield         | OpenFOAM: The Open Source CFD Toolbox
   \\    /   O peration     | Website:  https://openfoam.org
    \\  /    A nd           | Version:  6
     \\/     M anipulation  |
\*---------------------------------------------------------------------------*/
FoamFile
{
    version     2.0;
    format      ascii;
    class       volScalarField;
    location    "100";
    object      nut;
}
// * * * * * * * * * * * * * * * * * * * * * * * * * * * * * * * * * * * * * //

dimensions      [0 2 -1 0 0 0 0];

internalField   nonuniform List<scalar> 
12225
(
2.54151e-05
9.22493e-06
6.81926e-06
5.74005e-06
5.04876e-06
4.5422e-06
4.14714e-06
3.82758e-06
3.56285e-06
3.33991e-06
3.15003e-06
2.98718e-06
2.84722e-06
2.7276e-06
2.62722e-06
2.54878e-06
2.5005e-06
2.55987e-06
0.00014546
9.67997e-05
8.71319e-05
8.07785e-05
7.60796e-05
7.23161e-05
6.9169e-05
6.64678e-05
6.41101e-05
6.20296e-05
6.01815e-05
5.85348e-05
5.70703e-05
5.57793e-05
5.4672e-05
5.37825e-05
5.32466e-05
5.34971e-05
0.000311822
0.000216544
0.000196551
0.00018441
0.000175306
0.00016785
0.000161477
0.000155895
0.000150935
0.000146488
0.000142482
0.000138867
0.000135616
0.000132724
0.000130229
0.000128217
0.000127117
0.000126949
0.000468997
0.000336447
0.000303578
0.000285453
0.000272364
0.000261741
0.000252653
0.000244665
0.000237534
0.000231111
0.000225298
0.000220031
0.000215276
0.000211028
0.000207339
0.000204329
0.000202456
0.000201842
0.000595827
0.000447776
0.000403331
0.000379453
0.000362754
0.000349432
0.000338113
0.000328185
0.00031932
0.000311324
0.000304073
0.000297488
0.000291525
0.000286177
0.000281491
0.000277593
0.000274853
0.000273489
0.000689194
0.000546073
0.000494106
0.000465385
0.000445553
0.00042995
0.00041681
0.000405336
0.000395108
0.00038588
0.000377504
0.000369884
0.000362964
0.000356729
0.000351214
0.000346527
0.000342933
0.000340643
0.000753367
0.000629265
0.000574742
0.000542764
0.000520491
0.00050307
0.000488524
0.000475861
0.000464581
0.000454404
0.000445154
0.000436728
0.000429062
0.000422122
0.000415927
0.000410555
0.000406179
0.000402955
0.000794365
0.00069755
0.000644399
0.00061116
0.000587445
0.00056887
0.000553328
0.000539809
0.000527772
0.000516907
0.000507023
0.000497997
0.000489755
0.000482259
0.00047551
0.00046956
0.000464514
0.000460466
0.000820258
0.000749686
0.000702463
0.000670196
0.000646269
0.000627188
0.000611121
0.000597105
0.000584603
0.000573301
0.000562999
0.000553572
0.000544936
0.000537046
0.000529892
0.000523498
0.000517919
0.000513199
0.000835838
0.000787699
0.000748956
0.000719653
0.000696741
0.000677941
0.000661881
0.000647759
0.000635101
0.000623615
0.000613114
0.000603473
0.000594611
0.000586477
0.000579052
0.000572341
0.000566364
0.000561131
0.00084467
0.000814001
0.000784488
0.00075957
0.000738781
0.000721057
0.000705571
0.000691766
0.000679282
0.000667881
0.000657405
0.000647744
0.000638824
0.000630598
0.00062304
0.000616143
0.000609905
0.000604318
0.000848893
0.00082965
0.000808006
0.000787746
0.000769663
0.000753574
0.000739124
0.000726008
0.000713999
0.000702935
0.000692697
0.000683202
0.000674391
0.000666223
0.000658673
0.000651728
0.000645377
0.000639602
0.000851017
0.000839674
0.000824758
0.000809152
0.000794129
0.000780081
0.000767033
0.00075491
0.000743633
0.00073312
0.000723303
0.000714131
0.000705565
0.000697577
0.000690145
0.000683257
0.000676897
0.000671043
0.000851841
0.000845836
0.000836711
0.000825908
0.000814519
0.000803102
0.000791988
0.000781343
0.000771211
0.000761597
0.000752491
0.00074389
0.000735783
0.000728157
0.000721002
0.000714309
0.000708066
0.000702254
0.000851751
0.000848451
0.000843359
0.000836671
0.000828925
0.000820594
0.000811985
0.00080331
0.000794743
0.000786399
0.000778346
0.000770624
0.000763245
0.000756212
0.000749534
0.000743214
0.00073725
0.000731631
0.000851196
0.000848483
0.000845401
0.000841483
0.000836672
0.000831164
0.000825147
0.000818782
0.000812205
0.000805546
0.00079891
0.00079236
0.000785956
0.000779744
0.000773749
0.000767988
0.000762469
0.000757201
0.000850578
0.000847295
0.000844573
0.000841905
0.000838935
0.000835503
0.000831589
0.000827243
0.000822553
0.000817601
0.000812468
0.000807231
0.000801955
0.000796697
0.0007915
0.000786398
0.00078142
0.000776592
0.000850203
0.000846288
0.00084327
0.000840799
0.000838485
0.000836048
0.00083332
0.000830226
0.000826748
0.000822919
0.000818795
0.000814444
0.000809934
0.000805325
0.000800674
0.000796023
0.000791407
0.000786848
0.000850324
0.000846594
0.000843667
0.000841177
0.000838747
0.000836128
0.000833174
0.000829828
0.000826098
0.000822029
0.000817684
0.000813127
0.00080842
0.00080362
0.000798778
0.000793936
0.000789131
0.000784393
0.000851022
0.000848208
0.000845378
0.00084205
0.000838016
0.000833305
0.000828064
0.000822434
0.000816523
0.000810429
0.000804229
0.000797983
0.000791754
0.000785591
0.000779531
0.000773601
0.000767826
0.000762226
0.000851756
0.0008484
0.000843324
0.000836723
0.000829098
0.000820905
0.000812403
0.000803761
0.000795149
0.000786673
0.000778402
0.000770365
0.000762591
0.000755097
0.000747889
0.000740966
0.000734327
0.000727973
0.000851497
0.000843042
0.000831297
0.000818269
0.000805137
0.000792338
0.000780048
0.000768349
0.00075727
0.000746779
0.000736847
0.000727452
0.000718549
0.000710096
0.000702066
0.000694435
0.000687188
0.000680307
0.000847678
0.000825389
0.00080168
0.000780021
0.000760866
0.00074392
0.000728763
0.000715033
0.000702424
0.000690751
0.000679883
0.000669725
0.000660198
0.000651238
0.000642795
0.000634826
0.000627301
0.000620198
0.000835168
0.00078679
0.000747888
0.000718202
0.000694908
0.000675709
0.000659235
0.000644681
0.000631552
0.000619546
0.000608465
0.000598175
0.000588576
0.000579593
0.000571164
0.000563241
0.000555785
0.000548776
0.000804788
0.000718414
0.00066667
0.00063293
0.000608475
0.000589213
0.000573011
0.000558838
0.000546134
0.000534568
0.000523932
0.000514085
0.000504927
0.000496379
0.00048838
0.000480877
0.000473837
0.000467242
0.000742524
0.000614041
0.000558819
0.000526603
0.000504223
0.000486689
0.000472013
0.000459198
0.000447715
0.00043727
0.000427679
0.000418816
0.00041059
0.000402927
0.000395773
0.000389082
0.000382818
0.000376974
0.000627186
0.000477824
0.000429208
0.000403092
0.000385043
0.000370724
0.000358567
0.000347881
0.000338299
0.000329593
0.000321616
0.000314262
0.000307454
0.000301128
0.000295236
0.000289734
0.000284594
0.000279822
0.000449251
0.000317367
0.000284586
0.000266818
0.000254069
0.00024373
0.000234875
0.000227081
0.000220106
0.000213795
0.000208038
0.000202757
0.000197889
0.000193387
0.000189212
0.000185326
0.00018171
0.000178377
0.000229945
0.000151434
0.000134958
0.000125168
0.000118013
0.000112255
0.000107399
0.000103197
9.9498e-05
9.6202e-05
9.32378e-05
9.05531e-05
8.81077e-05
8.58698e-05
8.38143e-05
8.19181e-05
8.01669e-05
7.85688e-05
5.25359e-05
2.3396e-05
1.71644e-05
1.43655e-05
1.26015e-05
1.13115e-05
1.02982e-05
9.47088e-06
8.77844e-06
8.18861e-06
7.67946e-06
7.23536e-06
6.84469e-06
6.49858e-06
6.19006e-06
5.91378e-06
5.66393e-06
5.44248e-06
2.11354e-08
6.75124e-07
1.30243e-06
1.91148e-06
2.52892e-06
3.16555e-06
3.85156e-06
4.61013e-06
5.45047e-06
6.37097e-06
7.36325e-06
8.41761e-06
9.52145e-06
1.06636e-05
1.18326e-05
1.30201e-05
1.42175e-05
1.54199e-05
1.66213e-05
1.78197e-05
1.90114e-05
2.01853e-05
2.13361e-05
2.24635e-05
2.35625e-05
2.46334e-05
2.56717e-05
2.66782e-05
2.76489e-05
2.85865e-05
2.94902e-05
3.03695e-05
3.12097e-05
3.20108e-05
3.27719e-05
3.34954e-05
3.41822e-05
3.48304e-05
3.54336e-05
3.59926e-05
3.65051e-05
3.69713e-05
3.73898e-05
3.77608e-05
3.80836e-05
3.83586e-05
3.85858e-05
3.8766e-05
3.89004e-05
3.89946e-05
3.90328e-05
3.90132e-05
3.89575e-05
3.88615e-05
3.8727e-05
3.85525e-05
3.8342e-05
3.80947e-05
3.78153e-05
3.75024e-05
3.71615e-05
3.67914e-05
3.63972e-05
3.59775e-05
3.55385e-05
3.50795e-05
3.46049e-05
3.41126e-05
3.36078e-05
3.30896e-05
3.25629e-05
3.20266e-05
3.14852e-05
3.09377e-05
3.03882e-05
2.98357e-05
2.92839e-05
2.8732e-05
2.8183e-05
2.76361e-05
2.7094e-05
2.65559e-05
2.60241e-05
2.54979e-05
2.49791e-05
2.44672e-05
2.39637e-05
2.34683e-05
2.29818e-05
2.25043e-05
2.20352e-05
2.15764e-05
2.11276e-05
2.06886e-05
2.02593e-05
1.98398e-05
1.94301e-05
1.903e-05
1.86395e-05
1.82586e-05
1.7887e-05
1.75248e-05
1.71718e-05
1.68278e-05
1.64928e-05
1.61666e-05
1.58489e-05
1.55394e-05
1.5238e-05
1.49446e-05
1.46588e-05
1.43811e-05
1.41116e-05
1.38499e-05
1.35956e-05
1.33484e-05
1.31081e-05
1.28743e-05
1.2647e-05
1.24258e-05
1.22105e-05
1.2001e-05
1.17971e-05
1.15987e-05
1.14054e-05
1.12173e-05
1.10341e-05
1.08556e-05
1.06818e-05
1.05122e-05
1.03468e-05
1.01854e-05
1.00279e-05
9.87415e-06
9.72406e-06
9.57776e-06
9.43486e-06
9.29524e-06
9.15877e-06
9.02547e-06
8.8955e-06
8.76879e-06
8.64516e-06
8.52442e-06
8.4064e-06
8.29091e-06
8.17782e-06
8.06702e-06
7.95838e-06
7.85176e-06
7.74704e-06
7.64413e-06
7.54297e-06
7.44348e-06
7.34563e-06
7.24935e-06
7.15458e-06
7.06128e-06
6.96939e-06
6.87884e-06
6.78959e-06
6.70155e-06
6.61468e-06
6.52886e-06
6.44418e-06
6.36062e-06
6.27809e-06
6.19641e-06
6.11532e-06
6.03478e-06
5.95363e-06
5.87457e-06
5.79047e-06
5.7074e-06
5.62132e-06
5.54715e-06
5.45794e-06
5.36215e-06
5.24499e-06
4.85515e-06
1.34798e-07
8.87892e-06
2.2718e-05
3.15401e-05
3.6856e-05
4.07567e-05
4.42025e-05
4.76333e-05
5.12224e-05
5.50143e-05
5.90072e-05
6.32419e-05
6.77111e-05
7.23911e-05
7.72513e-05
8.22583e-05
8.73778e-05
9.25763e-05
9.78216e-05
0.000103084
0.000108339
0.000113563
0.000118737
0.000123841
0.000128855
0.000133762
0.000138545
0.000143182
0.000147646
0.000151901
0.000155889
0.000159507
0.000162896
0.000166114
0.000169174
0.000172077
0.000174824
0.000177415
0.000179848
0.000182119
0.000184226
0.000186168
0.000187941
0.000189546
0.000190982
0.000192248
0.000193345
0.000194276
0.000195045
0.000195661
0.000196116
0.0001964
0.00019653
0.000196501
0.000196336
0.000196034
0.000195601
0.000195041
0.000194362
0.000193568
0.000192668
0.000191667
0.000190572
0.00018939
0.000188128
0.000186796
0.000185396
0.000183936
0.000182421
0.000180858
0.000179253
0.000177613
0.000175942
0.000174247
0.000172532
0.000170802
0.000169061
0.000167314
0.000165563
0.000163813
0.000162066
0.000160326
0.000158594
0.000156875
0.000155168
0.000153477
0.000151802
0.000150146
0.000148509
0.000146892
0.000145296
0.000143721
0.000142169
0.000140639
0.000139133
0.00013765
0.000136192
0.000134758
0.000133348
0.000131963
0.000130602
0.000129265
0.000127952
0.000126664
0.000125398
0.000124157
0.000122935
0.000121731
0.000120547
0.000119384
0.000118242
0.00011713
0.000116044
0.000114979
0.000113934
0.00011291
0.000111904
0.000110917
0.000109948
0.000108998
0.000108064
0.000107148
0.000106248
0.000105365
0.000104498
0.000103647
0.000102811
0.00010199
0.000101181
0.000100385
9.96e-05
9.88276e-05
9.8067e-05
9.73195e-05
9.65774e-05
9.58392e-05
9.51101e-05
9.4392e-05
9.36849e-05
9.29915e-05
9.23137e-05
9.16494e-05
9.09965e-05
9.03536e-05
8.97198e-05
8.90945e-05
8.84773e-05
8.78678e-05
8.72652e-05
8.66685e-05
8.60774e-05
8.54919e-05
8.49119e-05
8.43374e-05
8.37684e-05
8.32046e-05
8.26459e-05
8.20919e-05
8.15424e-05
8.0997e-05
8.04554e-05
7.9917e-05
7.93813e-05
7.8848e-05
7.83184e-05
7.77918e-05
7.72663e-05
7.67389e-05
7.62071e-05
7.56682e-05
7.51165e-05
7.45547e-05
7.3964e-05
7.33186e-05
7.26893e-05
7.19061e-05
7.12392e-05
7.0055e-05
6.85286e-05
6.37509e-05
3.32459e-07
1.74316e-05
4.42822e-05
6.50596e-05
7.97617e-05
9.05057e-05
9.91326e-05
0.000106817
0.000114237
0.000121759
0.000129651
0.000137794
0.000146189
0.000154809
0.000163611
0.000172546
0.000181564
0.000190616
0.000199658
0.00020865
0.000217558
0.000226353
0.000235008
0.0002435
0.000251804
0.000259902
0.000267771
0.000275389
0.000282733
0.000289777
0.000296492
0.000302871
0.000308948
0.000314747
0.000320278
0.000325541
0.000330536
0.00033526
0.00033971
0.000343881
0.00034777
0.000351374
0.00035469
0.000357715
0.00036045
0.000362894
0.000365047
0.000366913
0.000368494
0.000369795
0.00037086
0.000371624
0.000372117
0.000372343
0.000372323
0.000372063
0.000371573
0.00037086
0.000369937
0.000368813
0.0003675
0.000366009
0.000364351
0.000362537
0.000360579
0.000358489
0.000356278
0.000353957
0.000351537
0.00034903
0.000346444
0.00034379
0.000341079
0.000338318
0.000335517
0.000332684
0.000329825
0.000326949
0.00032406
0.000321166
0.000318272
0.000315382
0.000312502
0.000309635
0.000306785
0.000303955
0.000301149
0.000298369
0.000295615
0.000292892
0.000290199
0.000287539
0.000284912
0.000282319
0.000279762
0.000277241
0.000274756
0.000272309
0.000269899
0.000267527
0.000265192
0.000262895
0.000260635
0.000258412
0.000256226
0.000254077
0.000251961
0.000249877
0.000247826
0.000245808
0.000243823
0.000241872
0.000239956
0.000238072
0.000236218
0.000234395
0.000232601
0.000230836
0.000229099
0.000227389
0.000225707
0.000224052
0.000222422
0.000220819
0.000219241
0.000217687
0.000216158
0.000214651
0.000213157
0.000211677
0.000210214
0.000208769
0.000207342
0.000205935
0.000204543
0.000203164
0.0002018
0.00020045
0.000199118
0.000197811
0.000196533
0.000195275
0.000194035
0.000192811
0.0001916
0.000190402
0.000189217
0.000188043
0.000186877
0.000185717
0.000184564
0.000183419
0.000182281
0.000181151
0.000180029
0.000178916
0.000177809
0.00017671
0.000175618
0.000174532
0.000173452
0.000172376
0.000171304
0.000170237
0.00016918
0.000168127
0.000167074
0.000166016
0.000164948
0.000163865
0.000162759
0.000161628
0.000160453
0.000159193
0.000157901
0.000156376
0.0001552
0.000153027
0.000150594
0.000142974
5.39383e-07
2.37374e-05
6.00949e-05
8.99777e-05
0.000113069
0.000131115
0.000145988
0.000159054
0.000171223
0.000183053
0.00019477
0.000206647
0.000218645
0.00023076
0.000242962
0.000255208
0.000267451
0.000279645
0.000291745
0.000303714
0.000315518
0.000327128
0.000338517
0.000349664
0.000360547
0.000371148
0.00038145
0.000391434
0.000401085
0.000410389
0.000419333
0.000427916
0.000436147
0.00044403
0.000451567
0.000458759
0.000465601
0.000472089
0.000478217
0.000483981
0.000489374
0.000494394
0.000499036
0.000503298
0.000507177
0.000510673
0.000513788
0.000516523
0.00051888
0.000520865
0.000522531
0.000523811
0.000524729
0.000525296
0.000525532
0.000525445
0.000525047
0.000524351
0.00052337
0.000522118
0.00052061
0.00051886
0.000516883
0.000514695
0.000512309
0.000509741
0.000507006
0.000504119
0.000501095
0.000497947
0.000494689
0.000491335
0.000487897
0.000484388
0.000480818
0.000477198
0.000473539
0.00046985
0.000466139
0.000462415
0.000458685
0.000454955
0.000451233
0.000447523
0.000443832
0.000440163
0.00043652
0.000432908
0.000429328
0.000425784
0.000422278
0.000418811
0.000415386
0.000412004
0.000408666
0.000405375
0.00040213
0.000398932
0.000395782
0.000392679
0.000389625
0.000386619
0.00038366
0.000380749
0.000377886
0.000375068
0.000372296
0.000369568
0.000366883
0.000364241
0.000361641
0.000359085
0.00035657
0.000354095
0.00035166
0.000349264
0.000346905
0.000344583
0.000342296
0.000340044
0.000337827
0.000335644
0.000333494
0.000331377
0.000329291
0.000327236
0.000325211
0.000323214
0.000321241
0.000319289
0.000317359
0.00031545
0.000313564
0.0003117
0.000309857
0.000308031
0.000306224
0.000304434
0.000302663
0.000300915
0.000299189
0.000297486
0.000295801
0.000294133
0.00029248
0.000290842
0.000289218
0.000287606
0.000285993
0.000284383
0.000282777
0.000281179
0.000279588
0.000278005
0.00027643
0.000274863
0.000273303
0.000271751
0.000270206
0.000268667
0.000267132
0.000265603
0.000264075
0.000262558
0.000261056
0.000259556
0.000258049
0.00025653
0.000254994
0.000253435
0.000251842
0.000250209
0.000248516
0.000246722
0.000244842
0.000242698
0.000240878
0.000238042
0.000234631
0.00022584
7.2059e-07
2.838e-05
7.21306e-05
0.000109816
0.000140405
0.000165379
0.000186359
0.000204753
0.000221567
0.000237478
0.0002529
0.00026806
0.000283154
0.000298168
0.00031311
0.000327964
0.000342699
0.000357283
0.000371683
0.000385867
0.00039981
0.000413488
0.00042688
0.000439969
0.00045274
0.000465177
0.000477269
0.000489002
0.000500365
0.000511347
0.000521942
0.00053215
0.000541971
0.000551406
0.000560451
0.000569103
0.000577355
0.000585202
0.000592637
0.000599653
0.000606243
0.000612402
0.000618124
0.000623406
0.000628245
0.000632639
0.000636589
0.000640095
0.00064316
0.000645788
0.000648024
0.000649822
0.000651193
0.000652155
0.000652721
0.000652901
0.000652711
0.000652164
0.000651277
0.000650065
0.000648546
0.000646737
0.000644654
0.000642317
0.000639741
0.000636945
0.000633946
0.000630762
0.000627409
0.000623904
0.000620264
0.000616502
0.000612636
0.000608678
0.000604643
0.000600543
0.000596389
0.000592194
0.000587967
0.000583719
0.000579458
0.000575192
0.00057093
0.000566678
0.000562442
0.000558228
0.000554041
0.000549885
0.000545764
0.000541682
0.00053764
0.000533641
0.000529688
0.000525784
0.000521931
0.000518129
0.000514381
0.000510686
0.000507045
0.000503459
0.000499928
0.000496452
0.000493031
0.000489664
0.000486352
0.000483093
0.000479887
0.000476733
0.000473629
0.000470575
0.000467571
0.000464616
0.000461709
0.000458849
0.000456034
0.000453264
0.000450537
0.000447852
0.000445208
0.000442604
0.00044004
0.000437515
0.000435028
0.000432577
0.000430162
0.000427782
0.000425435
0.00042312
0.000420835
0.000418575
0.000416341
0.000414132
0.000411947
0.000409785
0.000407647
0.000405528
0.00040343
0.000401351
0.00039929
0.00039725
0.000395231
0.000393231
0.00039125
0.000389284
0.000387334
0.000385398
0.000383475
0.000381563
0.000379656
0.000377752
0.000375852
0.000373956
0.000372066
0.000370182
0.000368303
0.00036643
0.000364561
0.000362698
0.000360838
0.000358982
0.000357128
0.000355275
0.000353422
0.000351571
0.000349724
0.000347866
0.000345989
0.000344092
0.000342172
0.00034022
0.000338226
0.000336178
0.000334056
0.000331821
0.000329459
0.000326838
0.000324248
0.000320889
0.000316567
0.000307549
8.67077e-07
3.17239e-05
8.11138e-05
0.000125454
0.000162462
0.000193695
0.000220351
0.00024377
0.000264979
0.000284718
0.000303486
0.000321603
0.00033927
0.000356653
0.000373774
0.000390641
0.000407251
0.000423593
0.000439653
0.000455413
0.00047086
0.000485981
0.000500763
0.000515198
0.000529277
0.000542992
0.000556336
0.000569303
0.000581882
0.000594067
0.000605858
0.000617257
0.00062826
0.000638863
0.000649061
0.000658846
0.00066821
0.000677145
0.00068564
0.000693687
0.000701277
0.000708401
0.000715053
0.000721225
0.000726914
0.000732116
0.00073683
0.000741054
0.000744792
0.000748047
0.000750848
0.000753173
0.000755026
0.000756423
0.000757374
0.000757888
0.000757983
0.000757676
0.000756985
0.000755927
0.00075452
0.000752785
0.000750741
0.000748406
0.000745801
0.000742946
0.00073986
0.000736561
0.00073307
0.000729404
0.000725581
0.00072162
0.000717535
0.000713344
0.00070906
0.0007047
0.000700275
0.000695798
0.000691282
0.000686738
0.000682174
0.000677601
0.000673027
0.00066846
0.000663908
0.000659376
0.00065487
0.000650395
0.000645956
0.000641557
0.0006372
0.000632892
0.000628635
0.000624431
0.000620281
0.000616185
0.000612146
0.000608164
0.000604239
0.000600372
0.000596564
0.000592815
0.000589125
0.000585493
0.00058192
0.000578404
0.000574946
0.000571543
0.000568196
0.000564903
0.000561664
0.000558477
0.000555343
0.000552259
0.000549225
0.000546238
0.000543299
0.000540403
0.000537553
0.000534746
0.000531982
0.000529259
0.000526577
0.000523934
0.000521328
0.00051876
0.000516226
0.000513726
0.000511258
0.000508819
0.000506407
0.000504022
0.000501661
0.000499325
0.000497011
0.000494719
0.000492447
0.000490193
0.000487958
0.000485741
0.000483542
0.000481361
0.000479195
0.000477045
0.000474908
0.000472783
0.000470669
0.000468564
0.000466465
0.00046437
0.000462277
0.000460187
0.000458099
0.000456014
0.000453931
0.000451851
0.000449772
0.000447695
0.000445618
0.00044354
0.000441461
0.00043938
0.000437294
0.000435203
0.000433108
0.000431
0.000428871
0.000426717
0.000424532
0.000422308
0.000420033
0.000417692
0.000415264
0.000412715
0.000410011
0.000407054
0.000403952
0.000400115
0.000395095
0.000386453
9.80097e-07
3.40912e-05
8.76932e-05
0.000137386
0.000179989
0.000216525
0.00024824
0.000276203
0.000301412
0.00032463
0.000346408
0.000367137
0.000387067
0.00040635
0.000425128
0.000443477
0.000461431
0.000479004
0.000496201
0.000513022
0.000529464
0.000545526
0.000561207
0.000576506
0.000591424
0.000605962
0.00062012
0.000633897
0.000647294
0.000660312
0.000672949
0.000685204
0.000697071
0.000708545
0.000719618
0.000730279
0.000740519
0.000750325
0.000759685
0.000768588
0.000777022
0.000784976
0.000792439
0.000799403
0.00080586
0.000811806
0.000817236
0.000822148
0.000826544
0.000830425
0.000833806
0.000836682
0.00083906
0.000840947
0.00084235
0.000843269
0.000843735
0.000843763
0.000843372
0.000842581
0.00084141
0.00083988
0.000838012
0.000835827
0.000833345
0.000830588
0.000827578
0.000824334
0.000820877
0.000817228
0.000813404
0.000809425
0.000805309
0.000801073
0.000796732
0.000792303
0.0007878
0.000783236
0.000778624
0.000773977
0.000769304
0.000764617
0.000759923
0.000755233
0.000750553
0.000745891
0.000741253
0.000736644
0.000732069
0.000727533
0.000723039
0.000718586
0.000714185
0.000709838
0.000705545
0.000701309
0.00069713
0.00069301
0.000688949
0.000684949
0.000681009
0.00067713
0.000673312
0.000669555
0.000665859
0.000662222
0.000658645
0.000655127
0.000651666
0.000648262
0.000644914
0.000641621
0.000638382
0.000635196
0.000632061
0.000628977
0.000625941
0.000622952
0.00062001
0.000617115
0.000614263
0.000611454
0.000608686
0.000605958
0.000603268
0.000600615
0.000597997
0.000595414
0.000592862
0.00059034
0.000587846
0.000585378
0.000582935
0.000580516
0.000578118
0.000575741
0.000573383
0.000571042
0.000568718
0.000566411
0.000564118
0.000561841
0.000559577
0.000557325
0.000555084
0.000552853
0.00055063
0.000548414
0.000546202
0.000543992
0.000541784
0.000539576
0.000537367
0.000535158
0.000532948
0.000530736
0.000528523
0.000526307
0.000524088
0.000521864
0.000519634
0.000517398
0.000515153
0.000512898
0.000510631
0.000508347
0.00050604
0.000503703
0.000501329
0.000498909
0.000496431
0.00049388
0.000491232
0.000488455
0.00048551
0.000482316
0.00047888
0.000474811
0.000469464
0.000461209
1.06353e-06
3.5734e-05
9.23885e-05
0.000146252
0.000193459
0.000234447
0.000270458
0.000302344
0.000331035
0.000357282
0.00038166
0.000404596
0.000426403
0.000447303
0.000467443
0.00048693
0.000505838
0.000524218
0.000542104
0.000559524
0.000576497
0.000593043
0.000609178
0.000624915
0.000640269
0.00065525
0.000669868
0.000684131
0.000698044
0.000711609
0.000724824
0.000737685
0.000750188
0.000762324
0.000774083
0.000785452
0.000796417
0.000806964
0.000817077
0.00082674
0.000835938
0.000844656
0.000852879
0.000860597
0.000867798
0.000874473
0.000880616
0.000886222
0.00089129
0.000895821
0.000899817
0.000903289
0.000906244
0.000908684
0.000910607
0.000912
0.000912909
0.000913351
0.000913346
0.000912913
0.000912073
0.000910849
0.000909262
0.000907335
0.00090509
0.000902549
0.000899736
0.000896672
0.000893377
0.000889875
0.000886184
0.000882324
0.000878315
0.000874175
0.000869919
0.000865566
0.000861129
0.000856624
0.000852064
0.000847461
0.000842827
0.000838173
0.000833508
0.000828842
0.000824182
0.000819536
0.000814911
0.000810313
0.000805746
0.000801216
0.000796726
0.000792279
0.00078788
0.000783532
0.000779238
0.000774999
0.000770816
0.000766691
0.000762626
0.00075862
0.000754675
0.00075079
0.000746966
0.000743202
0.000739499
0.000735856
0.000732272
0.000728747
0.00072528
0.00072187
0.000718517
0.000715218
0.000711973
0.000708781
0.000705641
0.000702551
0.000699509
0.000696512
0.000693562
0.000690659
0.000687799
0.000684982
0.000682206
0.000679469
0.00067677
0.000674108
0.00067148
0.000668885
0.000666321
0.000663787
0.000661279
0.000658798
0.00065634
0.000653904
0.000651489
0.000649093
0.000646714
0.000644351
0.000642002
0.000639668
0.000637347
0.000635037
0.000632737
0.000630447
0.000628165
0.000625889
0.000623618
0.000621351
0.000619086
0.000616821
0.000614554
0.000612286
0.000610014
0.000607739
0.000605459
0.000603175
0.000600885
0.000598588
0.000596284
0.000593971
0.000591648
0.000589314
0.000586967
0.000584605
0.000582226
0.000579825
0.000577397
0.000574935
0.000572432
0.000569878
0.00056726
0.000564562
0.000561762
0.000558829
0.000555721
0.000552371
0.000548733
0.000544527
0.000539202
0.000531365
1.1218e-06
3.68174e-05
9.55679e-05
0.000152534
0.00020333
0.000247929
0.000287431
0.000322563
0.000354146
0.000382904
0.000409413
0.000434127
0.000457389
0.000479459
0.000500531
0.000520748
0.000540222
0.000559034
0.000577252
0.000594928
0.000612106
0.000628826
0.000645121
0.00066102
0.000676548
0.000691728
0.000706576
0.000721107
0.00073533
0.00074925
0.000762868
0.000776181
0.000789181
0.000801859
0.000814202
0.000826193
0.000837815
0.000849049
0.000859874
0.000870269
0.000880215
0.000889692
0.000898681
0.000907165
0.000915129
0.000922561
0.00092945
0.000935789
0.000941572
0.000946798
0.000951465
0.000955591
0.00095918
0.000962243
0.000964758
0.000966699
0.000968121
0.00096905
0.000969505
0.000969506
0.000969077
0.000968241
0.00096702
0.000965438
0.000963519
0.000961286
0.000958764
0.000955974
0.000952941
0.000949685
0.000946229
0.000942592
0.000938795
0.000934856
0.000930794
0.000926625
0.000922366
0.00091803
0.000913633
0.000909187
0.000904705
0.000900196
0.000895673
0.000891143
0.000886616
0.000882099
0.000877599
0.000873123
0.000868675
0.00086426
0.000859883
0.000855548
0.000851258
0.000847015
0.000842824
0.000838685
0.000834601
0.000830573
0.000826602
0.000822689
0.000818834
0.000815038
0.000811301
0.000807622
0.000804003
0.000800441
0.000796938
0.000793492
0.000790102
0.000786768
0.000783488
0.000780262
0.000777089
0.000773967
0.000770895
0.000767871
0.000764895
0.000761964
0.000759078
0.000756235
0.000753435
0.000750675
0.000747955
0.000745272
0.000742625
0.000740012
0.000737432
0.000734883
0.000732363
0.000729871
0.000727404
0.000724961
0.00072254
0.000720138
0.000717755
0.000715389
0.000713037
0.000710698
0.000708372
0.000706057
0.000703752
0.000701455
0.000699165
0.000696882
0.000694604
0.000692328
0.000690055
0.000687782
0.000685508
0.000683232
0.000680951
0.000678666
0.000676374
0.000674076
0.000671771
0.000669457
0.000667133
0.000664799
0.000662454
0.000660096
0.000657724
0.000655337
0.000652932
0.000650508
0.000648061
0.000645588
0.000643085
0.000640545
0.000637959
0.000635318
0.000632609
0.000629816
0.000626917
0.000623884
0.000620676
0.000617233
0.000613488
0.000609225
0.000603988
0.000596689
1.15925e-06
3.74671e-05
9.74971e-05
0.00015661
0.000210045
0.000257444
0.000299619
0.000337264
0.000371095
0.000401792
0.000429924
0.00045595
0.00048024
0.000503082
0.000524706
0.000545291
0.000564983
0.000583896
0.000602128
0.000619757
0.000636854
0.000653478
0.000669681
0.000685507
0.000700995
0.000716178
0.000731082
0.000745727
0.000760126
0.000774287
0.000788213
0.000801899
0.000815337
0.000828514
0.000841412
0.000854012
0.000866291
0.000878222
0.000889781
0.00090094
0.000911673
0.000921954
0.000931758
0.000941064
0.00094985
0.0009581
0.000965799
0.000972935
0.0009795
0.000985489
0.000990898
0.000995748
0.00100005
0.00100381
0.00100698
0.00100954
0.00101154
0.00101302
0.001014
0.0010145
0.00101455
0.00101417
0.00101338
0.00101222
0.00101069
0.00100884
0.00100668
0.00100424
0.00100154
0.000998612
0.000995467
0.000992132
0.000988626
0.00098497
0.000981182
0.00097728
0.000973281
0.000969199
0.000965049
0.000960845
0.000956599
0.000952323
0.000948026
0.000943719
0.000939411
0.000935108
0.000930819
0.00092655
0.000922305
0.000918091
0.000913911
0.00090977
0.00090567
0.000901615
0.000897608
0.00089365
0.000889743
0.00088589
0.00088209
0.000878345
0.000874656
0.000871022
0.000867444
0.000863922
0.000860456
0.000857045
0.00085369
0.000850388
0.000847141
0.000843946
0.000840802
0.00083771
0.000834668
0.000831674
0.000828727
0.000825827
0.000822971
0.000820158
0.000817387
0.000814656
0.000811965
0.000809312
0.000806695
0.000804113
0.000801564
0.000799046
0.000796558
0.000794099
0.000791666
0.000789257
0.000786871
0.000784506
0.00078216
0.000779831
0.000777518
0.000775218
0.000772931
0.000770653
0.000768385
0.000766124
0.00076387
0.000761621
0.000759376
0.000757134
0.000754893
0.000752652
0.00075041
0.000748165
0.000745915
0.000743661
0.000741399
0.000739129
0.00073685
0.000734561
0.000732262
0.000729951
0.000727626
0.000725288
0.000722935
0.000720565
0.000718177
0.00071577
0.000713341
0.000710888
0.000708409
0.000705899
0.000703357
0.000700773
0.00069814
0.000695449
0.000692686
0.000689838
0.000686883
0.000683793
0.000680532
0.000677047
0.000673263
0.000669005
0.000663902
0.000657097
1.1787e-06
3.77447e-05
9.83641e-05
0.00015877
0.000213959
0.000263307
0.00030738
0.000346802
0.000382211
0.000414243
0.000443448
0.000470288
0.000495147
0.000518341
0.000540126
0.000560716
0.000580287
0.000598987
0.00061694
0.000634254
0.000651024
0.000667329
0.00068324
0.000698818
0.000714116
0.000729174
0.000744028
0.000758703
0.000773216
0.000787576
0.000801786
0.00081584
0.000829725
0.000843426
0.000856918
0.000870176
0.000883169
0.000895866
0.000908233
0.000920235
0.000931838
0.000943009
0.000953718
0.000963934
0.000973631
0.000982787
0.000991381
0.000999399
0.00100683
0.00101366
0.0010199
0.00102555
0.00103065
0.00103517
0.00103906
0.00104231
0.00104495
0.00104704
0.0010486
0.00104966
0.00105025
0.00105038
0.00105008
0.00104939
0.00104832
0.0010469
0.00104516
0.00104312
0.00104082
0.00103827
0.00103549
0.00103252
0.00102937
0.00102605
0.0010226
0.00101903
0.00101535
0.00101158
0.00100775
0.00100385
0.000999903
0.000995923
0.000991918
0.000987899
0.000983875
0.000979852
0.000975839
0.000971842
0.000967866
0.000963916
0.000959997
0.000956113
0.000952267
0.000948463
0.000944701
0.000940986
0.000937318
0.000933699
0.00093013
0.000926612
0.000923146
0.000919731
0.000916369
0.000913059
0.0009098
0.000906594
0.000903438
0.000900332
0.000897277
0.00089427
0.000891311
0.0008884
0.000885534
0.000882713
0.000879936
0.000877202
0.000874508
0.000871853
0.000869237
0.000866658
0.000864114
0.000861605
0.000859128
0.000856682
0.000854266
0.000851877
0.000849515
0.000847177
0.000844862