/*--------------------------------*- C++ -*----------------------------------*\
  =========                 |
  \\      /  F ield         | OpenFOAM: The Open Source CFD Toolbox
   \\    /   O peration     | Website:  https://openfoam.org
    \\  /    A nd           | Version:  6
     \\/     M anipulation  |
\*---------------------------------------------------------------------------*/
FoamFile
{
    version     2.0;
    format      ascii;
    class       volScalarField;
    location    "100";
    object      p;
}
// * * * * * * * * * * * * * * * * * * * * * * * * * * * * * * * * * * * * * //

dimensions      [0 2 -2 0 0 0 0];

internalField   nonuniform List<scalar> 
12225
(
-0.0346944
-0.0200913
0.00194574
0.018895
0.030482
0.0382686
0.0434467
0.046756
0.0487091
0.049652
0.0498095
0.0493163
0.0482307
0.046521
0.0440216
0.0402342
0.033899
0.0206559
-0.0754186
-0.0254085
-0.00144298
0.0160343
0.02803
0.0361501
0.0416064
0.0451407
0.0472743
0.0483599
0.048627
0.0482125
0.0471745
0.0454781
0.0429565
0.0391447
0.033132
0.022542
-0.104327
-0.0336757
-0.00773439
0.0108355
0.023563
0.0322642
0.0382073
0.0421392
0.0445952
0.0459389
0.0464074
0.0461435
0.0452083
0.0435717
0.0410902
0.0374069
0.0321069
0.024706
-0.113829
-0.041233
-0.0142022
0.00544539
0.0188578
0.028099
0.0345022
0.0388213
0.041601
0.0432123
0.0438992
0.0438118
0.0430219
0.0415211
0.0392246
0.0359457
0.0316724
0.0267677
-0.112011
-0.046759
-0.0193089
0.000961224
0.0148168
0.0244366
0.0311769
0.0357944
0.0388351
0.0406723
0.0415552
0.0416423
0.0410213
0.0397173
0.0377176
0.0349925
0.0317609
0.0285363
-0.103948
-0.0499613
-0.0228649
-0.00255641
0.0114711
0.0213106
0.0282748
0.0331093
0.0363534
0.0383785
0.0394365
0.0396954
0.039261
0.0381945
0.0365475
0.0344004
0.0320738
0.0299873
-0.0918995
-0.0506185
-0.0248729
-0.00512287
0.00878812
0.0186871
0.0257699
0.0307491
0.0341472
0.0363287
0.0375465
0.0379767
0.0377431
0.0369391
0.035665
0.0340657
0.0324837
0.0311824
-0.0774185
-0.0486465
-0.0252963
-0.0066658
0.00681635
0.0165963
0.0236848
0.0287339
0.0322362
0.0345431
0.035905
0.0365042
0.0364794
0.0359491
0.0350446
0.0339404
0.0329536
0.032192
-0.0617115
-0.044207
-0.0241248
-0.00710738
0.00562246
0.0150858
0.0220562
0.0270942
0.0306478
0.033047
0.0345351
0.0352968
0.035481
0.0352222
0.0346671
0.0339942
0.033472
0.033081
-0.0456065
-0.0376739
-0.0214134
-0.00641094
0.00525512
0.0141944
0.0209152
0.0258559
0.0294042
0.0318602
0.0334538
0.034367
0.0347529
0.0347527
0.0345151
0.0342072
0.0340425
0.0339065
-0.0295733
-0.0295384
-0.0173236
-0.00461052
0.00572502
0.0139412
0.0202804
0.0250359
0.0285208
0.030996
0.0326714
0.0337206
0.0342939
0.0345312
0.0345736
0.0345683
0.0346783
0.0347186
-0.0151518
-0.0210605
-0.0125542
-0.00206159
0.00687908
0.0142756
0.0201548
0.0246648
0.0280397
0.0304977
0.0322243
0.0333798
0.0341064
0.0345358
0.0347975
0.0350178
0.035325
0.0354748
-0.00181241
-0.0118338
-0.00704987
0.00122998
0.00870011
0.015149
0.0204682
0.0246628
0.0278779
0.0302831
0.0320351
0.0332755
0.0341332
0.0347283
0.0351739
0.0355767
0.0360213
0.0362851
0.0122434
-0.000882706
-0.000111328
0.00570736
0.0114929
0.016763
0.0213464
0.0251097
0.0280896
0.0303954
0.0321461
0.0334574
0.0344385
0.0351911
0.0358096
0.0363772
0.0369422
0.0373267
0.0266081
0.01128
0.00815858
0.0113716
0.0153498
0.0192678
0.0229499
0.0261614
0.0288237
0.0309742
0.0326874
0.0340442
0.0351283
0.0360176
0.0367855
0.0374922
0.0381604
0.0386605
0.0404457
0.0237242
0.0172339
0.0179118
0.0201224
0.0226579
0.0253531
0.0279314
0.0302125
0.032159
0.0337949
0.0351653
0.0363209
0.0373164
0.0382004
0.0390156
0.0397683
0.0403764
0.0523316
0.0349177
0.0259282
0.0244762
0.0252029
0.0265564
0.0283593
0.0303427
0.0322576
0.0339987
0.0355461
0.0369099
0.0381135
0.039186
0.0401584
0.0410555
0.0418843
0.0426053
0.0596194
0.0423206
0.0321044
0.0294211
0.0293194
0.0300174
0.0313018
0.0329351
0.0346427
0.0362768
0.0377881
0.0391651
0.0404126
0.0415434
0.0425754
0.0435237
0.0444015
0.0452081
0.0577457
0.0414949
0.0319298
0.0297606
0.030182
0.031336
0.0329925
0.0349418
0.0369247
0.0387979
0.0405168
0.0420738
0.0434775
0.0447423
0.0458882
0.0469339
0.0479091
0.0488596
0.0482822
0.0320429
0.0244194
0.0243816
0.0264485
0.0289265
0.0316542
0.0344245
0.0370259
0.039369
0.0414486
0.0432807
0.0448936
0.0463135
0.0475708
0.0486885
0.0497057
0.0506838
0.0315919
0.0174821
0.0137398
0.0170424
0.0215635
0.0259423
0.0301088
0.0339132
0.0372442
0.0401076
0.0425559
0.0446504
0.0464456
0.0479942
0.0493378
0.0505155
0.0515703
0.0525868
0.010357
0.000514793
0.00229244
0.0096405
0.0169683
0.0233979
0.0289993
0.0337592
0.0377221
0.041003
0.0437249
0.0459932
0.0478953
0.0495038
0.0508758
0.052058
0.053099
0.0540827
-0.0137128
-0.0164487
-0.00780649
0.00378613
0.0138477
0.0221149
0.0288827
0.0343574
0.0387579
0.0423032
0.0451774
0.0475246
0.0494594
0.0510694
0.0524246
0.0535762
0.0545766
0.0555069
-0.0392649
-0.0311742
-0.0149823
0.000433787
0.0127505
0.0223778
0.0299098
0.0358006
0.0404204
0.0440671
0.0469701
0.0493025
0.0511955
0.0527493
0.0540392
0.055123
0.0560498
0.0568984
-0.0646019
-0.0415537
-0.0183371
-0.000112633
0.0137182
0.0241254
0.0320107
0.0380368
0.0426758
0.0462773
0.0490993
0.0513327
0.0531189
0.0545641
0.0557477
0.0567295
0.0575565
0.0583017
-0.087419
-0.0460226
-0.0177111
0.00197996
0.016515
0.027154
0.0350374
0.0409614
0.0454514
0.0488832
0.0515306
0.0535927
0.0552153
0.0565068
0.0575476
0.0583979
0.0591021
0.0597246
-0.10389
-0.0440499
-0.0133533
0.00645699
0.020915
0.0313176
0.0389033
0.0445187
0.0487081
0.0518563
0.0542412
0.0560639
0.0574688
0.0585636
0.059427
0.0601177
0.0606774
0.0611596
-0.105607
-0.0360671
-0.00578497
0.0130998
0.0267918
0.0365573
0.0435758
0.048681
0.0524172
0.055165
0.0571978
0.0587104
0.0598425
0.0606965
0.0613474
0.0618506
0.0622443
0.0625725
-0.0795169
-0.024316
0.0028947
0.0204721
0.0330637
0.0419915
0.0483027
0.0527973
0.0560117
0.0583137
0.0599641
0.0611473
0.0619948
0.0626018
0.0630373
0.0633522
0.0635822
0.0637655
-0.0315872
-0.0154871
0.00824698
0.025019
0.0368995
0.0452902
0.0511511
0.0552612
0.0581511
0.0601786
0.0615952
0.0625783
0.0632537
0.0637118
0.0640179
0.0642199
0.0643518
0.0644535
0.0254252
0.0253432
0.0251501
0.0248965
0.0246146
0.0243094
0.0239782
0.0236169
0.0232239
0.022799
0.0223461
0.0218717
0.0213876
0.0209077
0.0204511
0.0200373
0.0196894
0.0194281
0.0192765
0.0192524
0.0193751
0.0196576
0.0201148
0.0207543
0.021585
0.0226067
0.0238183
0.0252097
0.0267751
0.0285097
0.0304197
0.0325054
0.0347587
0.0371614
0.0396991
0.0423565
0.0451202
0.0479763
0.0509116
0.0539126
0.056966
0.0600592
0.0631787
0.0663128
0.0694482
0.0725746
0.0756793
0.0787532
0.0817846
0.0847661
0.0876869
0.0905415
0.0933201
0.0960188
0.0986294
0.10115
0.103574
0.1059
0.108123
0.110244
0.112259
0.114172
0.115979
0.117687
0.119297
0.120812
0.12223
0.123555
0.124785
0.125926
0.126978
0.127947
0.128832
0.12964
0.130372
0.131034
0.131625
0.132153
0.132617
0.133024
0.133374
0.133673
0.133921
0.134124
0.134283
0.1344
0.134479
0.134521
0.13453
0.134508
0.134457
0.134378
0.134273
0.134143
0.133991
0.133819
0.133627
0.133417
0.13319
0.132949
0.132693
0.132424
0.132143
0.131851
0.131548
0.131237
0.130916
0.130589
0.130254
0.129913
0.129566
0.129214
0.128857
0.128497
0.128132
0.127765
0.127395
0.127022
0.126647
0.126271
0.125893
0.125513
0.125132
0.124751
0.124368
0.123986
0.123603
0.12322
0.122837
0.122454
0.122072
0.121689
0.121308
0.120927
0.120546
0.120166
0.119786
0.119406
0.119026
0.118648
0.11827
0.117892
0.117515
0.11714
0.116764
0.11639
0.116016
0.115643
0.11527
0.114897
0.114526
0.114154
0.113783
0.113413
0.113043
0.112673
0.112303
0.111935
0.111566
0.111199
0.110833
0.110467
0.110104
0.109742
0.109382
0.109027
0.108676
0.108331
0.107995
0.107669
0.107359
0.10707
0.10681
0.106591
0.106431
0.106354
0.106421
0.106681
0.107415
0.108228
0.0262629
0.0260473
0.0257453
0.0255027
0.0253406
0.0251879
0.0249965
0.0247444
0.0244253
0.0240398
0.0235948
0.0231003
0.0225722
0.0220284
0.0214918
0.0209849
0.0205336
0.0201608
0.0198909
0.0197434
0.0197379
0.0198882
0.0202078
0.0207044
0.0213863
0.0222558
0.0233157
0.0245644
0.0260018
0.0276229
0.02942
0.0313796
0.0334921
0.0357483
0.0381389
0.0406526
0.0432776
0.0460017
0.0488122
0.0516968
0.0546423
0.0576367
0.0606667
0.0637208
0.0667862
0.069852
0.0729064
0.0759395
0.07894
0.0818997
0.0848081
0.0876586
0.0904419
0.093153
0.0957843
0.0983321
0.10079
0.103156
0.105425
0.107596
0.109666
0.111636
0.113503
0.115268
0.116929
0.118491
0.119958
0.121332
0.122614
0.123808
0.124915
0.12594
0.126882
0.127747
0.128537
0.129255
0.129904
0.130488
0.131009
0.131471
0.131876
0.132229
0.13253
0.132784
0.132993
0.13316
0.133286
0.133375
0.133429
0.13345
0.133442
0.133404
0.133339
0.133248
0.133133
0.132996
0.132839
0.132662
0.132468
0.132258
0.132032
0.131792
0.131538
0.131273
0.130996
0.130709
0.130413
0.130108
0.129795
0.129475
0.129149
0.128816
0.128478
0.128136
0.127788
0.127437
0.127083
0.126725
0.126365
0.126002
0.125637
0.12527
0.124902
0.124532
0.12416
0.123788
0.123416
0.123042
0.122669
0.122295
0.121921
0.121546
0.121172
0.120798
0.120424
0.12005
0.119676
0.119303
0.118929
0.118556
0.118183
0.117811
0.117439
0.117068
0.116697
0.116326
0.115956
0.115587
0.115217
0.114848
0.114479
0.114111
0.113743
0.113375
0.113007
0.11264
0.112273
0.111906
0.11154
0.111175
0.11081
0.110447
0.110085
0.109725
0.109368
0.109014
0.108665
0.108322
0.107988
0.107666
0.107359
0.107073
0.106818
0.106604
0.106449
0.106379
0.106452
0.106699
0.107397
0.10807
0.0279083
0.027443
0.0267553
0.0262818
0.0260812
0.025973
0.0258357
0.0256224
0.025321
0.0249336
0.0244729
0.0239557
0.0234022
0.0228332
0.0222718
0.0217402
0.0212618
0.0208573
0.0205482
0.0203516
0.0202852
0.0203614
0.0205928
0.0209868
0.0215508
0.0222877
0.0232009
0.024291
0.0255593
0.0270034
0.0286189
0.0303967
0.0323284
0.0344046
0.0366162
0.0389531
0.0414046
0.0439598
0.046607
0.0493347
0.0521307
0.0549835
0.0578807
0.0608111
0.0637623
0.0667238
0.069684
0.0726329
0.0755599
0.0784561
0.0813117
0.0841191
0.0868697
0.0895574
0.0921751
0.0947177
0.0971794
0.0995569
0.101846
0.104045
0.106152
0.108165
0.110086
0.111912
0.113643
0.115281
0.116827
0.118282
0.119648
0.120926
0.122118
0.123227
0.124254
0.125204
0.126078
0.126879
0.127611
0.128275
0.128876
0.129416
0.129897
0.130323
0.130697
0.131022
0.131299
0.131532
0.131723
0.131875
0.131989
0.132069
0.132116
0.132133
0.13212
0.132079
0.132013
0.131924
0.131812
0.131679
0.131527
0.131356
0.131169
0.130966
0.130749
0.130518
0.130275
0.13002
0.129754
0.129479
0.129194
0.128901
0.128601
0.128294
0.12798
0.127661
0.127336
0.127007
0.126672
0.126334
0.125993
0.125648
0.125301
0.12495
0.124598
0.124243
0.123886
0.123528
0.123169
0.122808
0.122446
0.122084
0.121721
0.121357
0.120993
0.120629
0.120264
0.119899
0.119534
0.119168
0.118802
0.118437
0.118071
0.117706
0.11734
0.116975
0.11661
0.116245
0.11588
0.115515
0.11515
0.114785
0.114421
0.114056
0.113692
0.113328
0.112963
0.112599
0.112235
0.111872
0.111509
0.111146
0.110784
0.110423
0.110064
0.109706
0.109352
0.109001
0.108654
0.108314
0.107984
0.107665
0.107362
0.107081
0.10683
0.10662
0.106471
0.106406
0.106474
0.106684
0.107293
0.107721
0.0296263
0.0289433
0.027785
0.0268628
0.0263518
0.0260465
0.0257885
0.0255035
0.0251596
0.0247463
0.0242681
0.0237378
0.0231746
0.0225982
0.022031
0.0214934
0.0210077
0.0205928
0.0202686
0.020051
0.0199564
0.0199967
0.0201841
0.0205261
0.0210303
0.0217001
0.0225391
0.0235477
0.0247266
0.0260729
0.0275833
0.029251
0.0310695
0.0330308
0.0351266
0.0373479
0.0396851
0.0421279
0.0446656
0.0472874
0.0499818
0.0527378
0.0555435
0.058388
0.0612596
0.0641477
0.0670411
0.06993
0.0728038
0.0756537
0.07847
0.0812448
0.0839697
0.0866381
0.0892429
0.0917788
0.0942399
0.0966225
0.098923
0.101139
0.103269
0.105311
0.107265
0.109129
0.110904
0.11259
0.114187
0.115696
0.117117
0.118452
0.119703
0.120872
0.121962
0.122973
0.123909
0.124773
0.125567
0.126293
0.126956
0.127556
0.128098
0.128584
0.129016
0.129398
0.129732
0.13002
0.130265
0.130469
0.130634
0.130763
0.130859
0.130922
0.130955
0.130959
0.130935
0.130887
0.130815
0.130721
0.130607
0.130473
0.130321
0.130152
0.129967
0.129768
0.129555
0.12933
0.129093
0.128845
0.128587
0.12832
0.128045
0.127761
0.127471
0.127173
0.12687
0.126561
0.126246
0.125927
0.125604
0.125277
0.124946
0.124612
0.124275
0.123936
0.123593
0.123249
0.122903
0.122555
0.122206
0.121855
0.121504
0.121151
0.120797
0.120442
0.120087
0.119731
0.119374
0.119017
0.118659
0.118302
0.117943
0.117585
0.117226
0.116867
0.116508
0.116149
0.115789
0.11543
0.11507
0.11471
0.11435
0.11399
0.113629
0.113269
0.112908
0.112548
0.112187
0.111827
0.111467
0.111107
0.110748
0.11039
0.110033
0.109678
0.109326
0.108977
0.108633
0.108296
0.107967
0.107651
0.10735
0.10707
0.10682
0.106611
0.106458
0.106383
0.106425
0.106573
0.10704
0.107222
0.0306773
0.0298254
0.0283039
0.0269838
0.0261376
0.0255705
0.0251185
0.0246985
0.0242667
0.0238005
0.0232954
0.0227567
0.0221983
0.0216362
0.02109
0.0205776
0.0201186
0.0197297
0.0194289
0.0192302
0.0191484
0.0191943
0.0193795
0.0197109
0.0201962
0.0208391
0.0216436
0.0226101
0.0237396
0.0250295
0.0264775
0.0280783
0.0298267
0.0317157
0.0337379
0.035885
0.0381481
0.0405176
0.0429835
0.0455354
0.0481624
0.0508539
0.0535984
0.0563853
0.0592032
0.0620418
0.0648901
0.0677383
0.0705761
0.0733946
0.0761841
0.0789367
0.0816441
0.0842996
0.0868961
0.0894282
0.0918905
0.0942792
0.0965902
0.0988209
0.100968
0.103032
0.105009
0.1069
0.108704
0.110421
0.112052
0.113596
0.115055
0.116429
0.117722
0.118933
0.120065
0.121121
0.122102
0.123012
0.123851
0.124624
0.125333
0.125979
0.126567
0.127099
0.127576
0.128003
0.12838
0.128712
0.128999
0.129245
0.129451
0.12962
0.129755
0.129857
0.129927
0.129967
0.129979
0.129965
0.129927
0.129865
0.129782
0.129679
0.129557
0.129417
0.129261
0.129089
0.128902
0.128702
0.12849
0.128266
0.128031
0.127786
0.127532
0.12727
0.126999
0.126722
0.126437
0.126146
0.125849
0.125547
0.12524
0.124929
0.124613
0.124294
0.123971
0.123645
0.123316
0.122984
0.12265
0.122314
0.121976
0.121636
0.121294
0.120952
0.120607
0.120262
0.119915
0.119567
0.119219
0.118869
0.118519
0.118168
0.117817
0.117465
0.117113
0.11676
0.116406
0.116052
0.115698
0.115343
0.114988
0.114633
0.114277
0.113921
0.113564
0.113207
0.11285
0.112493
0.112136
0.111779
0.111421
0.111064
0.110708
0.110352
0.109998
0.109645
0.109295
0.108948
0.108606
0.10827
0.107942
0.107626
0.107325
0.107044
0.106792
0.106576
0.106412
0.106316
0.106316
0.106389
0.106703
0.106681
0.0307161
0.0297821
0.0280775
0.0265106
0.0254155
0.0246283
0.0239956
0.0234388
0.0229122
0.0223873
0.0218529
0.0213079
0.020761
0.0202232
0.0197101
0.0192368
0.0188201
0.0184746
0.018216
0.0180566
0.0180101
0.018086
0.0182948
0.0186433
0.0191388
0.0197848
0.0205854
0.0215415
0.0226543
0.0239216
0.025342
0.0269108
0.0286236
0.0304742
0.032456
0.034561
0.036781
0.0391069
0.0415292
0.0440379
0.0466226
0.0492728
0.0519775
0.0547265
0.0575084
0.0603133
0.0631302
0.0659495
0.0687611
0.0715561
0.0743249
0.0770598
0.0797527
0.082397
0.0849858
0.087514
0.0899759
0.0923674
0.0946843
0.0969238
0.0990829
0.10116
0.103153
0.105062
0.106886
0.108625
0.110279
0.111849
0.113334
0.114737
0.116059
0.117301
0.118466
0.119554
0.120569
0.121513
0.122388
0.123196
0.12394
0.124623
0.125247
0.125814
0.126328
0.12679
0.127203
0.127569
0.127892
0.128172
0.128411
0.128614
0.128781
0.128915
0.129016
0.129086
0.129128
0.129144
0.129134
0.1291
0.129044
0.128967
0.128871
0.128756
0.128624
0.128475
0.128311
0.128134
0.127943
0.12774
0.127526
0.127301
0.127066
0.126822
0.126569
0.126309
0.126041
0.125766
0.125485
0.125198
0.124906
0.124608
0.124307
0.124
0.12369
0.123376
0.123059
0.122738
0.122415
0.12209
0.121762
0.121432
0.121099
0.120765
0.12043
0.120092
0.119754
0.119414
0.119072
0.11873
0.118387
0.118043
0.117698
0.117352
0.117005
0.116658
0.116309
0.11596
0.115611
0.115261
0.11491
0.114558
0.114206
0.113854
0.113501
0.113148
0.112794
0.11244
0.112086
0.111731
0.111377
0.111022
0.110668
0.110314
0.109962
0.109611
0.109262
0.108917
0.108575
0.10824
0.107912
0.107595
0.107292
0.107008
0.106749
0.106523
0.106342
0.106217
0.106168
0.106164
0.106335
0.10615
0.0297316
0.0287978
0.0270684
0.0254062
0.0241708
0.0232389
0.0224773
0.0218169
0.0212162
0.0206457
0.0200912
0.0195474
0.0190186
0.0185122
0.0180404
0.0176149
0.0172501
0.0169583
0.0167536
0.0166467
0.0166499
0.016772
0.0170225
0.0174075
0.0179341
0.0186057
0.0194263
0.0203968
0.0215187
0.0227903
0.0242102
0.0257746
0.0274795
0.029319
0.0312869
0.0333759
0.0355781
0.0378847
0.0402865
0.0427739
0.0453367
0.0479648
0.0506475
0.0533745
0.0561349
0.0589187
0.0617153
0.0645152
0.0673083
0.070086
0.072839
0.07556
0.0782411
0.0808759
0.0834573
0.08598
0.0884383
0.0908284
0.093146
0.0953881
0.0975518
0.0996355
0.101637
0.103556
0.105392
0.107144
0.108812
0.110398
0.111901
0.113322
0.114664
0.115928
0.117115
0.118227
0.119266
0.120235
0.121136
0.121971
0.122742
0.123453
0.124104
0.1247
0.125242
0.125732
0.126174
0.126569
0.126919
0.127227
0.127494
0.127724
0.127918
0.128078
0.128206
0.128302
0.128369
0.128409
0.128424
0.128414
0.128381
0.128327
0.128253
0.12816
0.128049
0.127921
0.127777
0.127619
0.127447
0.127263
0.127067
0.126859
0.126641
0.126413
0.126177
0.125932
0.125679
0.125418
0.125151
0.124878
0.124599
0.124314
0.124025
0.12373
0.123431
0.123128
0.122822
0.122512
0.122199
0.121882
0.121564
0.121242
0.120919
0.120593
0.120265
0.119935
0.119604
0.119271
0.118937
0.118601
0.118264
0.117925
0.117586
0.117246
0.116904
0.116562
0.116218
0.115874
0.115529
0.115183
0.114836
0.114488
0.11414
0.113791
0.113441
0.113091
0.11274
0.112389
0.112037
0.111685
0.111333
0.110981
0.110629
0.110277
0.109926
0.109577
0.109229
0.108884
0.108543
0.108207
0.107878
0.107559
0.107253
0.106963
0.106695
0.106456
0.106254
0.106095
0.105994
0.105913
0.105958
0.105642
0.0278794
0.0270055
0.0253677
0.0237365
0.0224654
0.0214703
0.0206428
0.0199252
0.019283
0.0186897
0.0181307
0.0175991
0.0170969
0.0166285
0.0162035
0.0158313
0.0155242
0.0152926
0.0151489
0.0151027
0.0151651
0.0153438
0.0156478
0.0160829
0.0166554
0.0173687
0.0182266
0.0192302
0.0203808
0.0216769
0.0231174
0.0246986
0.0264167
0.0282663
0.0302414
0.0323347
0.0345388
0.0368451
0.0392445
0.0417278
0.0442848
0.0469057
0.0495799
0.0522973
0.0550471
0.0578196
0.0606043
0.0633918
0.0661724
0.0689379
0.0716794
0.0743896
0.0770607
0.0796863
0.0822594
0.0847747
0.0872268
0.0896117
0.0919253
0.0941648
0.0963272
0.098411
0.100414
0.102336
0.104176
0.105933
0.107608
0.109202
0.110714
0.112147
0.1135
0.114777
0.115978
0.117106
0.118162
0.119149
0.120068
0.120922
0.121714
0.122444
0.123117
0.123734
0.124298
0.124811
0.125275
0.125692
0.126065
0.126395
0.126685
0.126937
0.127154
0.127336
0.127486
0.127604
0.127692
0.127754
0.127789
0.127799
0.127787
0.127753
0.127698
0.127623
0.12753
0.12742
0.127294
0.127154
0.126999
0.12683
0.12665
0.126458
0.126255
0.126042
0.12582
0.125588
0.125349
0.125101
0.124847
0.124586
0.124318
0.124045
0.123766
0.123482
0.123194
0.122901
0.122604
0.122303
0.121999
0.121692
0.121381
0.121068
0.120752
0.120434
0.120113
0.11979
0.119466
0.119139
0.118811
0.118481
0.118149
0.117817
0.117482
0.117147
0.11681
0.116472
0.116133
0.115793
0.115452
0.11511
0.114767
0.114422
0.114077
0.113732
0.113385
0.113038
0.11269
0.112341
0.111992
0.111642
0.111292
0.110941
0.110591
0.110241
0.109891
0.109542
0.109196
0.108851
0.108509
0.108173
0.107842
0.10752
0.107208
0.106911
0.106633
0.106377
0.106151
0.105957
0.105803
0.105651
0.105584
0.105163
0.0253684
0.0245943
0.0231268
0.0216212
0.0204015
0.0194163
0.0185825
0.0178551
0.0172071
0.0166167
0.0160715
0.0155647
0.0150977
0.0146733
0.0142998
0.0139846
0.0137387
0.0135708
0.0134925
0.0135119
0.0136394
0.0138819
0.0142479
0.0147423
0.0153715
0.0161383
0.0170466
0.0180971
0.019291
0.0206271
0.0221039
0.0237179
0.0254655
0.0273412
0.0293392
0.0314523
0.0336732
0.0359933
0.0384039
0.0408954
0.0434582
0.0460824
0.0487574
0.0514734
0.0542199
0.0569874
0.0597656
0.0625455
0.0653175
0.0680735
0.0708049
0.0735049
0.0761657
0.078781
0.081344
0.0838494
0.086292
0.088668
0.0909733
0.0932053
0.0953612
0.0974394
0.099438
0.101356
0.103194
0.10495
0.106626
0.10822
0.109736
0.111172
0.112531
0.113815
0.115024
0.116161
0.117227
0.118225
0.119156
0.120024
0.120829
0.121575
0.122263
0.122896
0.123477
0.124006
0.124488
0.124923
0.125314
0.125662
0.125971
0.126241
0.126476
0.126677
0.126845
0.126981
0.127088
0.127167
0.12722
0.127248
0.127253
0.127236
0.127197
0.127139
0.127062
0.126968
0.126858
0.126732
0.126592
0.126438
0.126272
0.126094
0.125904
0.125704
0.125494
0.125275
0.125048
0.124812
0.124569
0.124319
0.124062
0.123799
0.12353
0.123256
0.122977
0.122693
0.122404
0.122112
0.121816
0.121517
0.121214
0.120908
0.120599
0.120287
0.119973
0.119657
0.119338
0.119017
0.118694
0.11837
0.118044
0.117716
0.117386
0.117056
0.116723
0.116389
0.116054
0.115718
0.11538
0.115042
0.114702
0.114361
0.114019
0.113676
0.113332
0.112988
0.112642
0.112296
0.111948
0.111601
0.111252
0.110904
0.110555
0.110206
0.109857
0.109509
0.109162
0.108817
0.108475
0.108137
0.107803
0.107477
0.107159
0.106854
0.106563
0.10629
0.106039
0.105809
0.105603
0.105384
0.10522
0.104715
0.0224141
0.0217644
0.0205172
0.0192029
0.0181007
0.0171841
0.0163944
0.0156986
0.0150775
0.0145146
0.0140012
0.013532
0.0131088
0.0127343
0.0124161
0.0121606
0.0119781
0.0118763
0.0118658
0.0119539
0.0121504
0.0124615
0.0128951
0.0134558
0.0141494
0.0149786
0.0159469
0.0170547
0.0183032
0.0196907
0.0212159
0.0228749
0.0246641
0.0265778
0.0286104
0.0307545
0.0330027
0.0353464
0.0377768
0.0402846
0.0428601
0.0454937
0.0481752
0.0508948
0.0536421
0.0564078
0.059182
0.0619556
0.0647196
0.067466
0.0701866
0.072875
0.0755235
0.0781261
0.0806758
0.0831678
0.0855969
0.0879595
0.0902519
0.0924714
0.0946155
0.0966827
0.0986713
0.100581
0.10241
0.10416
0.105829
0.10742
0.108932
0.110367
0.111726
0.113011
0.114222
0.115363
0.116434
0.117438
0.118376
0.119252
0.120066
0.120822
0.121521
0.122166
0.122759
0.123301
0.123796
0.124245
0.12465
0.125014
0.125337
0.125623
0.125873
0.126089
0.126272
0.126424
0.126546
0.12664
0.126709
0.126752
0.126772
0.126769
0.126745
0.126702
0.126639
0.126559
0.126462
0.12635
0.126223
0.126082
0.125928
0.125762
0.125585
0.125397
0.125198
0.12499
0.124773
0.124548
0.124315
0.124075
0.123828
0.123574
0.123314
0.123049
0.122778
0.122502
0.122222
0.121937
0.121648
0.121356
0.12106
0.12076
0.120458
0.120153
0.119844
0.119534
0.11922
0.118905
0.118587
0.118268
0.117946
0.117623
0.117298
0.116971
0.116643
0.116313
0.115981
0.115648
0.115314
0.114979
0.114642
0.114304
0.113965
0.113625
0.113283
0.112941
0.112597
0.112253
0.111908
0.111562
0.111215
0.110868
0.11052
0.110172
0.109824
0.109476
0.109129
0.108784
0.10844
0.1081
0.107763
0.107432
0.107107
0.106792
0.106488
0.106196
0.105919
0.105654
0.105399
0.10512
0.104871
0.1043
0.0192182
0.0187066
0.0177092
0.0166286
0.0156904
0.0148864
0.0141796
0.0135486
0.0129813
0.012467
0.012001
0.0115807
0.0112093
0.01089
0.0106307
0.0104375
0.0103202
0.010286
0.0103451
0.0105042
0.0107725
0.0111557
0.0116614
0.0122936
0.0130579
0.0139564
0.0149922
0.0161655
0.0174771
0.0189249
0.0205072
0.0222198
0.0240589
0.0260185
0.0280927
0.0302743
0.0325557
0.0349284
0.0373835
0.0399117
0.0425035
0.0451492
0.047839
0.0505633
0.0533119
0.0560756
0.0588448
0.0616109
0.0643647
0.067099
0.0698061
0.0724795
0.075112
0.0776976
0.0802297
0.0827035
0.0851142
0.0874583
0.0897324
0.0919342
0.094061
0.0961118
0.0980848
0.0999796
0.101796
0.103533
0.105192
0.106773
0.108277
0.109706
0.11106
0.11234
0.113549
0.114689
0.11576
0.116766
0.117707
0.118587
0.119406
0.120168
0.120875
0.121528
0.122129
0.122681
0.123186
0.123646
0.124062
0.124437
0.124772
0.125071
0.125333
0.125562
0.125758
0.125923
0.126058
0.126166
0.126248
0.126304
0.126337
0.126347
0.126336
0.126305
0.126255
0.126187
0.126103
0.126002
0.125887
0.125758
0.125615
0.12546
0.125294
0.125116
0.124928
0.12473
0.124523
0.124307
0.124083
0.123852
0.123613
0.123368
0.123116
0.122859
0.122595
0.122327
0.122054
0.121776
0.121494
0.121208
0.120919
0.120625
0.120329
0.120029
0.119726
0.11942
0.119112
0.118802
0.118489
0.118174
0.117856
0.117537
0.117216
0.116893
0.116568
0.116242
0.115914
0.115584
0.115253
0.11492
0.114586
0.114251
0.113914
0.113576
0.113237
0.112897
0.112556
0.112213
0.11187
0.111525
0.11118
0.110834
0.110487
0.110139
0.109792
0.109444
0.109097
0.108751
0.108405
0.108062
0.107722
0.107385
0.107053
0.106728
0.106409
0.106099
0.105796
0.105496
0.105196
0.104862
0.104539
0.103916
0.0159609
0.015593
0.0148599
0.0140377
0.0132934
0.0126323
0.0120364
0.0114945
0.0110016
0.0105524
0.0101469
0.00978523
0.0094729
0.00921407
0.00901743
0.00888922
0.00883951
0.00887515
0.0090061
0.00923873
0.00958199
0.010041
0.0106229
0.0113315
0.0121715
0.0131446
0.0142535
0.0154978
0.0168779
0.0183913
0.0200358
0.021807
0.0237005
0.02571
0.0278296
0.0300515
0.0323683
0.0347714
0.0372519
0.0398007
0.0424083
0.0450652
0.0477616
0.0504882
0.0532351
0.0559935
0.0587538
0.0615077
0.0642469
0.0669642
0.0696524
0.0723055
0.0749164
0.0774792
0.0799877
0.0824373
0.0848235
0.0871432
0.0893931
0.0915711
0.0936749
0.0957035
0.0976554
0.0995303
0.101328
0.103048
0.104691
0.106258
0.107749
0.109166
0.110511
0.111783
0.112986
0.11412
0.115188
0.116192
0.117133
0.118013
0.118834
0.119599
0.120309
0.120967
0.121574
0.122133
0.122646
0.123113
0.123539
0.123923
0.124268
0.124576
0.124849
0.125088
0.125295
0.125471
0.125618
0.125737
0.12583
0.125898
0.125942
0.125964
0.125964
0.125944
0.125905
0.125849
0.125775
0.125685
0.125581
0.125462
0.125329
0.125184
0.125027
0.124859
0.12468
0.124491
0.124293
0.124086
0.123871
0.123647
0.123417
0.123179
0.122935
0.122684
0.122428
0.122167
0.1219
0.121629
0.121353
0.121073
0.120789
0.120501
0.12021
0.119915
0.119617
0.119316
0.119013
0.118706
0.118398
0.118087
0.117773
0.117458
0.11714
0.116821
0.116499
0.116176
0.115851
0.115524
0.115196
0.114866
0.114534
0.114202
0.113867
0.113532
0.113194
0.112856
0.112517
0.112176
0.111834
0.111491
0.111146
0.110801
0.110455
0.110108
0.109761
0.109413
0.109065
0.108718
0.108371
0.108024
0.10768
0.107338
0.106998
0.106662
0.106329
0.105999
0.105671
0.105339
0.104997
0.104614
0.104227
0.103562
0.0127981
0.0125721
0.0121063
0.0115532
0.0110199
0.0105209
0.0100547
0.00961928
0.00921599
0.00884493
0.00851081
0.00821692
0.00797112
0.00777894
0.00765019
0.00759151
0.00761334
0.00772235
0.00792857
0.00823802
0.00865939
0.00919754
0.00985931
0.0106477
0.0115672
0.0126187
0.0138044
0.0151233
0.0165751
0.0181569
0.019866
0.0216974
0.0236465
0.0257066
0.0278713
0.0301329
0.0324835
0.0349147
0.0374176
0.0399832
0.042602
0.0452648
0.0479622
0.0506849
0.0534236
0.0561696
0.0589138
0.0616483
0.0643652
0.0670581
0.0697202
0.0723453
0.0749269
0.0774592
0.0799367
0.0823549
0.0847095
0.0869978
0.0892168
0.0913646
0.0934392
0.0954396
0.0973646
0.0992141
0.100988
0.102685
0.104308
0.105856
0.10733
0.108732
0.110063
0.111324
0.112516
0.113642
0.114703
0.115701
0.116638
0.117516
0.118336
0.119102
0.119813
0.120473
0.121084
0.121647
0.122165
0.122638
0.12307
0.123461
0.123814
0.12413
0.124412
0.12466
0.124876
0.125062
0.125218
0.125347
0.12545
0.125528
0.125582
0.125614
0.125624
0.125615
0.125586
0.125539
0.125475
0.125395
0.1253
0.125191
0.125067
0.124931
0.124783
0.124624
0.124453
0.124272
0.124082
0.123883
0.123675
0.12346
0.123236
0.123005
0.122768
0.122524
0.122274
0.122019
0.121758
0.121493
0.121223
0.120948
0.120669
0.120386
0.1201
0.11981
0.119517
0.11922
0.118921
0.118619
0.118314
0.118006
0.117697
0.117385
0.11707
0.116754
0.116435
0.116115
0.115793
0.115469
0.115143
0.114815
0.114486
0.114156
0.113823
0.11349
0.113155
0.112818
0.11248
0.112141
0.1118
0.111458
0.111115
0.110771
0.110425
0.110079
0.109732
0.109383
0.109035
0.108686
0.108336
0.107987
0.107638
0.10729
0.106942
0.106595
0.106248
0.1059
0.105548
0.105185
0.104805
0.104378
0.103936
0.103237
0.00985386
0.00976329
0.00955945
0.00927607
0.00896098
0.00863539
0.00831154
0.00799537
0.00769416
0.00741332
0.00716181
0.00694602
0.0067761
0.00665902
0.00660566
0.00662322
0.00672253
0.0069104
0.00719679
0.00758759
0.00809141
0.00871268
0.0094579
0.0103295
0.0113313
0.0124637
0.0137282
0.0151233
0.016648
0.0182984
0.0200715
0.0219617
0.0239638
0.0260709
0.0282762
0.030572
0.0329502
0.0354024
0.0379198
0.0404936
0.0431146
0.045774
0.0484624
0.0511713
0.0538914
0.0566146
0.0593321
0.0620369
0.0647216
0.0673803
0.0700064
0.072594
0.0751367
0.0776294
0.0800669
0.0824451
0.0847601
0.0870093
0.08919
0.0913006
0.0933392
0.0953052
0.0971975
0.099016
0.10076
0.102431
0.104028
0.105553
0.107006
0.108389
0.109702
0.110948
0.112127
0.113241
0.114293
0.115283
0.116213
0.117086
0.117903
0.118666
0.119376
0.120037
0.120649
0.121214
0.121735
0.122213
0.122649
0.123046
0.123405
0.123728
0.124017
0.124272
0.124496
0.12469
0.124855
0.124992
0.125104
0.125191
0.125254
0.125294
0.125314
0.125313
0.125293
0.125255
0.1252
0.125129
0.125042
0.124941
0.124827
0.124699
0.124559
0.124407
0.124244
0.124071
0.123888
0.123696
0.123496
0.123287
0.12307
0.122845
0.122614
0.122376
0.122133
0.121883
0.121628
0.121368
0.121102
0.120833
0.120559
0.120281
0.119999
0.119713
0.119424
0.119131
0.118836
0.118537
0.118236
0.117932
0.117626
0.117317
0.117006
0.116692
0.116376
0.116059
0.115739
0.115417
0.115094
0.114769
0.114442
0.114113
0.113783
0.113451
0.113117
0.112782
0.112446
0.112108
0.111768
0.111428
0.111085
0.110742
0.110397
0.110051
0.109703
0.109355
0.109005
0.108654
0.108303
0.10795
0.107596
0.107242
0.106886
0.106528
0.106168
0.105802
0.105427
0.105035
0.104621
0.104155
0.103665
0.10294
0.00720982
0.00725302
0.00730426
0.00728602
0.00718993
0.00704305
0.00686994
0.00668366
0.00649696
0.00631987
0.00616526
0.00604193
0.00596188
0.00593312
0.00596739
0.0060723
0.00625904
0.00653452
0.00690888
0.00738794
0.00798013
0.00868968
0.0095225
0.0104802
0.0115661
0.0127801
0.0141231
0.0155927
0.0171872
0.0189022
0.0207338
0.022676
0.0247232
0.0268683
0.0291042
0.0314232
0.0338173
0.036278
0.038797
0.0413656
0.0439751
0.0466171
0.0492826
0.0519635
0.0546511
0.0573376
0.0600152
0.0626773
0.0653175
0.0679299
0.0705082