/*--------------------------------*- C++ -*----------------------------------*\
  =========                 |
  \\      /  F ield         | OpenFOAM: The Open Source CFD Toolbox
   \\    /   O peration     | Website:  https://openfoam.org
    \\  /    A nd           | Version:  6
     \\/     M anipulation  |
\*---------------------------------------------------------------------------*/
FoamFile
{
    version     2.0;
    format      ascii;
    class       surfaceScalarField;
    location    "100";
    object      phi;
}
// * * * * * * * * * * * * * * * * * * * * * * * * * * * * * * * * * * * * * //

dimensions      [0 3 -1 0 0 0 0];

internalField   nonuniform List<scalar> 
24170
(
2.01606e-08
-1.22063e-08
3.07923e-08
-1.06322e-08
3.95126e-08
-8.72058e-09
4.69597e-08
-7.44763e-09
5.32626e-08
-6.30315e-09
5.8459e-08
-5.19683e-09
6.27386e-08
-4.27988e-09
6.62889e-08
-3.55082e-09
6.92729e-08
-2.98426e-09
7.18274e-08
-2.55504e-09
7.40729e-08
-2.24592e-09
7.61249e-08
-2.0526e-09
7.81127e-08
-1.98842e-09
8.02136e-08
-2.1016e-09
8.27331e-08
-2.52031e-09
8.63747e-08
-3.6426e-09
9.29597e-08
-6.58622e-09
-1.72582e-08
1.10217e-07
4.0276e-08
-2.66372e-08
5.50633e-08
-2.54201e-08
6.74058e-08
-2.10635e-08
7.80673e-08
-1.81098e-08
8.71785e-08
-1.54149e-08
9.49556e-08
-1.29746e-08
1.01612e-07
-1.09371e-08
1.0735e-07
-9.28938e-09
1.12348e-07
-7.98216e-09
1.16759e-07
-6.96754e-09
1.20726e-07
-6.2127e-09
1.2438e-07
-5.70827e-09
1.27869e-07
-5.47819e-09
1.31375e-07
-5.60867e-09
1.35169e-07
-6.3155e-09
1.39691e-07
-8.16648e-09
1.45548e-07
-1.24444e-08
-2.246e-08
1.50748e-07
5.88424e-08
-3.84341e-08
7.39845e-08
-4.05624e-08
8.76752e-08
-3.47544e-08
9.94156e-08
-2.98503e-08
1.09496e-07
-2.54952e-08
1.18207e-07
-2.16858e-08
1.25766e-07
-1.84959e-08
1.32366e-07
-1.589e-08
1.38181e-07
-1.37976e-08
1.43365e-07
-1.21517e-08
1.48058e-07
-1.09056e-08
1.52393e-07
-1.00436e-08
1.56509e-07
-9.59421e-09
1.60561e-07
-9.66151e-09
1.64734e-07
-1.04886e-08
1.69186e-07
-1.26186e-08
1.73754e-07
-1.70123e-08
-2.50822e-08
1.76376e-07
8.05966e-08
-4.70639e-08
9.44021e-08
-5.43682e-08
1.08129e-07
-4.84817e-08
1.20191e-07
-4.19127e-08
1.3068e-07
-3.59846e-08
1.39843e-07
-3.08485e-08
1.47874e-07
-2.65278e-08
1.54952e-07
-2.29678e-08
1.61236e-07
-2.00822e-08
1.66873e-07
-1.77893e-08
1.71998e-07
-1.60304e-08
1.76736e-07
-1.47825e-08
1.81213e-07
-1.40711e-08
1.85549e-07
-1.39984e-08
1.89847e-07
-1.47869e-08
1.94089e-07
-1.68616e-08
1.97877e-07
-2.08008e-08
-2.69914e-08
1.99786e-07
1.06481e-07
-5.24974e-08
1.18213e-07
-6.61011e-08
1.31097e-07
-6.13649e-08
1.42935e-07
-5.3751e-08
1.53452e-07
-4.65018e-08
1.62761e-07
-4.01573e-08
1.71006e-07
-3.47727e-08
1.78334e-07
-3.02957e-08
1.84886e-07
-2.66343e-08
1.90795e-07
-2.36984e-08
1.96184e-07
-2.14201e-08
2.01169e-07
-1.97675e-08
2.05855e-07
-1.87568e-08
2.10328e-07
-1.84714e-08
2.14625e-07
-1.9084e-08
2.18639e-07
-2.0876e-08
2.21952e-07
-2.41142e-08
-2.86863e-08
2.23647e-07
1.37195e-07
-5.49488e-08
1.46404e-07
-7.53104e-08
1.5778e-07
-7.27408e-08
1.68889e-07
-6.486e-08
1.79066e-07
-5.66791e-08
1.88233e-07
-4.9325e-08
1.96453e-07
-4.29933e-08
2.03829e-07
-3.76711e-08
2.10472e-07
-3.32775e-08
2.16495e-07
-2.97223e-08
2.22007e-07
-2.69324e-08
2.27106e-07
-2.48665e-08
2.31875e-07
-2.3526e-08
2.36368e-07
-2.29651e-08
2.40577e-07
-2.32936e-08
2.44361e-07
-2.46596e-08
2.4736e-07
-2.71133e-08
-3.03399e-08
2.49013e-07
1.73393e-07
-5.48138e-08
1.79779e-07
-8.16962e-08
1.89112e-07
-8.20741e-08
1.98997e-07
-7.47451e-08
2.08444e-07
-6.61258e-08
2.1716e-07
-5.80412e-08
2.251e-07
-5.09334e-08
2.32306e-07
-4.48766e-08
2.38852e-07
-3.98235e-08
2.44824e-07
-3.5695e-08
2.5031e-07
-3.24177e-08
2.55385e-07
-2.99424e-08
2.60112e-07
-2.82525e-08
2.64515e-07
-2.73684e-08
2.68559e-07
-2.7337e-08
2.72098e-07
-2.8199e-08
2.74857e-07
-2.98726e-08
-3.19979e-08
2.76516e-07
2.15648e-07
-5.25933e-08
2.19064e-07
-8.51117e-08
2.25937e-07
-8.89474e-08
2.34124e-07
-8.29328e-08
2.42427e-07
-7.44287e-08
2.50349e-07
-6.59631e-08
2.57721e-07
-5.8306e-08
2.64512e-07
-5.16676e-08
2.70748e-07
-4.60599e-08
2.76482e-07
-4.14289e-08
2.81772e-07
-3.77083e-08
2.86673e-07
-3.48433e-08
2.9122e-07
-3.27999e-08
2.95416e-07
-3.15651e-08
2.9921e-07
-3.11314e-08
3.02474e-07
-3.14624e-08
3.0501e-07
-3.24085e-08
-3.36392e-08
3.06651e-07
2.64452e-07
-4.8827e-08
2.64924e-07
-8.55829e-08
2.69041e-07
-9.3065e-08
2.75098e-07
-8.89896e-08
2.81832e-07
-8.11629e-08
2.88586e-07
-7.27173e-08
2.95069e-07
-6.47887e-08
3.01166e-07
-5.77644e-08
3.06848e-07
-5.17416e-08
3.12126e-07
-4.6707e-08
3.17027e-07
-4.26099e-08
3.21579e-07
-3.93949e-08
3.25793e-07
-3.70139e-08
3.29653e-07
-3.54254e-08
3.33101e-07
-3.45802e-08
3.36032e-07
-3.43933e-08
3.38315e-07
-3.46914e-08
-3.51979e-08
3.39874e-07
3.20206e-07
-4.4047e-08
3.17934e-07
-8.33115e-08
3.19136e-07
-9.42671e-08
3.22699e-07
-9.25524e-08
3.27453e-07
-8.59177e-08
3.3265e-07
-7.79147e-08
3.37892e-07
-7.00312e-08
3.42983e-07
-6.28553e-08
3.47833e-07
-5.65915e-08
3.52407e-07
-5.12818e-08
3.56698e-07
-4.69008e-08
3.60702e-07
-4.3399e-08
3.64407e-07
-4.07199e-08
3.67784e-07
-3.88018e-08
3.70771e-07
-3.75678e-08
3.73286e-07
-3.69081e-08
3.75246e-07
-3.66518e-08
-3.65786e-08
3.76627e-07
3.83187e-07
-3.87309e-08
3.78524e-07
-7.8649e-08
3.76804e-07
-9.25472e-08
3.77611e-07
-9.33593e-08
3.80019e-07
-8.83259e-08
3.83274e-07
-8.117e-08
3.86909e-07
-7.36659e-08
3.90656e-07
-6.66023e-08
3.94367e-07
-6.03026e-08
3.9796e-07
-5.48756e-08
4.0139e-07
-5.03307e-08
4.04623e-07
-4.66317e-08
4.07623e-07
-4.37209e-08
4.10348e-07
-4.15261e-08
4.12736e-07
-3.99566e-08
4.14723e-07
-3.8895e-08
4.16258e-07
-3.81869e-08
-3.766e-08
4.1734e-07
3.77928e-07
-3.39682e-08
3.72556e-07
-7.32774e-08
3.68961e-07
-8.89526e-08
3.67415e-07
-9.1813e-08
3.67419e-07
-8.83307e-08
3.68403e-07
-8.21534e-08
3.69955e-07
-7.5219e-08
3.71817e-07
-6.84639e-08
3.73824e-07
-6.23096e-08
3.75873e-07
-5.69254e-08
3.77898e-07
-5.23551e-08
3.79845e-07
-4.85793e-08
3.8167e-07
-4.55457e-08
3.83324e-07
-4.31803e-08
3.84758e-07
-4.13899e-08
3.85923e-07
-4.00602e-08
3.86789e-07
-3.90524e-08
-3.82407e-08
3.87369e-07
4.99981e-07
-2.86733e-08
4.9248e-07
-6.57766e-08
4.86171e-07
-8.26439e-08
4.81881e-07
-8.75232e-08
4.79423e-07
-8.58725e-08
4.78305e-07
-8.10361e-08
4.78094e-07
-7.50075e-08
4.78474e-07
-6.88448e-08
4.79231e-07
-6.30666e-08
4.80214e-07
-5.79086e-08
4.81316e-07
-5.34567e-08
4.82452e-07
-4.9716e-08
4.83553e-07
-4.66461e-08
4.84552e-07
-4.41791e-08
4.8539e-07
-4.22272e-08
4.86016e-07
-4.06865e-08
4.86405e-07
-3.94415e-08
-3.83991e-08
4.86564e-07
6.62148e-07
-2.30738e-08
6.52445e-07
-5.60737e-08
6.42882e-07
-7.30812e-08
6.34938e-07
-7.95794e-08
6.28896e-07
-7.98309e-08
6.24502e-07
-7.66424e-08
6.21382e-07
-7.18875e-08
6.19209e-07
-6.66719e-08
6.17728e-07
-6.15857e-08
6.16744e-07
-5.69243e-08
6.16105e-07
-5.28179e-08
6.1569e-07
-4.93009e-08
6.15397e-07
-4.63529e-08
6.15138e-07
-4.39199e-08
6.14839e-07
-4.19281e-08
6.14445e-07
-4.02914e-08
6.13924e-07
-3.89202e-08
-3.77463e-08
6.13271e-07
8.74772e-07
-1.73799e-08
8.63072e-07
-4.43731e-08
8.49962e-07
-5.99719e-08
8.37587e-07
-6.72044e-08
8.26812e-07
-6.90552e-08
8.17787e-07
-6.7618e-08
8.1034e-07
-6.44404e-08
8.04215e-07
-6.05461e-08
7.99162e-07
-5.65325e-08
7.94962e-07
-5.27251e-08
7.91431e-07
-4.92859e-08
7.88408e-07
-4.62781e-08
7.85759e-07
-4.37042e-08
7.83371e-07
-4.15315e-08
7.81149e-07
-3.9706e-08
7.79023e-07
-3.81651e-08
7.76948e-07
-3.6845e-08
-3.56985e-08
7.749e-07
1.14734e-06
-1.16842e-08
1.13397e-06
-3.10072e-08
1.11734e-06
-4.33368e-08
1.10008e-06
-4.99483e-08
1.08365e-06
-5.26229e-08
1.06871e-06
-5.26801e-08
1.05545e-06
-5.11766e-08
1.0438e-06
-4.8895e-08
1.0336e-06
-4.63358e-08
1.02467e-06
-4.37926e-08
1.01681e-06
-4.14262e-08
1.00984e-06
-3.93112e-08
1.0036e-06
-3.74685e-08
9.97959e-07
-3.58859e-08
9.92785e-07
-3.45327e-08
9.87991e-07
-3.33699e-08
9.83504e-07
-3.23594e-08
-3.14721e-08
9.79279e-07
1.48369e-06
-5.83049e-09
1.4688e-06
-1.61146e-08
1.44877e-06
-2.33102e-08
1.42652e-06
-2.76949e-08
1.40395e-06
-3.00518e-08
1.38224e-06
-3.09698e-08
1.362e-06
-3.09436e-08
1.34349e-06
-3.03828e-08
1.32673e-06
-2.95725e-08
1.31162e-06
-2.8689e-08
1.29803e-06
-2.78346e-08
1.28578e-06
-2.70615e-08
1.2747e-06
-2.63889e-08
1.26463e-06
-2.58154e-08
1.25543e-06
-2.53279e-08
1.24697e-06
-2.49089e-08
1.23915e-06
-2.45413e-08
-2.42142e-08
1.23189e-06
1.87156e-06
6.83219e-10
1.85473e-06
7.12769e-10
1.83108e-06
3.3482e-10
1.80372e-06
-3.31128e-10
1.77492e-06
-1.25158e-09
1.74627e-06
-2.32491e-09
1.7188e-06
-3.46618e-09
1.69304e-06
-4.62694e-09
1.66925e-06
-5.7771e-09
1.64745e-06
-6.89527e-09
1.62758e-06
-7.9663e-09
1.6095e-06
-8.97925e-09
1.59304e-06
-9.92563e-09
1.57802e-06
-1.07986e-08
1.56429e-06
-1.1593e-08
1.55168e-06
-1.23062e-08
1.54008e-06
-1.29389e-08
-1.34944e-08
1.52936e-06
2.26207e-06
7.36372e-09
2.24212e-06
2.06652e-08
2.21349e-06
2.89646e-08
2.18029e-06
3.28668e-08
2.14538e-06
3.3656e-08
2.1107e-06
3.23601e-08
2.07744e-06
2.97895e-08
2.04626e-06
2.65532e-08
2.01743e-06
2.30576e-08
1.99098e-06
1.95539e-08
1.96682e-06
1.61897e-08
1.9448e-06
1.30464e-08
1.92471e-06
1.0163e-08
1.90635e-06
7.55246e-09
1.88955e-06
5.21196e-09
1.87411e-06
3.12941e-09
1.85989e-06
1.2862e-09
-3.43837e-10
1.84674e-06
1.55407e-06
1.52563e-08
1.53625e-06
3.84841e-08
1.51356e-06
5.16503e-08
1.48935e-06
5.7078e-08
1.46556e-06
5.74511e-08
1.44319e-06
5.47291e-08
1.42266e-06
5.0316e-08
1.40405e-06
4.51574e-08
1.38728e-06
3.9828e-08
1.37219e-06
3.46506e-08
1.35858e-06
2.97965e-08
1.34628e-06
2.53444e-08
1.33512e-06
2.13203e-08
1.32496e-06
1.77178e-08
1.31566e-06
1.45155e-08
1.3071e-06
1.16821e-08
1.29921e-06
9.18339e-09
6.98067e-09
1.29188e-06
1.2326e-06
2.35355e-08
1.21548e-06
5.56058e-08
1.19609e-06
7.10452e-08
1.17751e-06
7.56525e-08
1.16092e-06
7.40372e-08
1.14656e-06
6.90934e-08
1.13423e-06
6.26452e-08
1.12362e-06
5.57652e-08
1.11442e-06
4.90245e-08
1.10637e-06
4.27047e-08
1.09924e-06
3.69274e-08
1.09286e-06
3.1728e-08
1.08708e-06
2.70946e-08
1.08181e-06
2.29924e-08
1.07695e-06
1.93757e-08
1.07243e-06
1.61964e-08
1.06821e-06
1.3406e-08
1.09558e-08
1.06424e-06
9.49343e-07
3.25519e-08
9.34403e-07
7.05453e-08
9.20456e-07
8.49914e-08
9.09332e-07
8.67763e-08
9.01034e-07
8.23352e-08
8.94998e-07
7.51287e-08
8.90594e-07
6.70492e-08
8.8731e-07
5.90487e-08
8.84777e-07
5.15574e-08
8.82736e-07
4.47445e-08
8.81013e-07
3.86507e-08
8.79486e-07
3.32543e-08
8.78076e-07
2.8504e-08
8.76731e-07
2.4338e-08
8.75414e-07
2.0692e-08
8.74105e-07
1.75053e-08
8.7279e-07
1.47215e-08
1.22865e-08
8.71459e-07
7.11866e-07
4.16305e-08
7.01208e-07
8.12038e-08
6.94474e-07
9.17253e-08
6.91531e-07
8.97194e-08
6.9126e-07
8.26054e-08
6.92586e-07
7.3802e-08
6.94733e-07
6.49023e-08
6.97213e-07
5.65683e-08
6.99737e-07
4.90328e-08
7.0214e-07
4.23417e-08
7.04331e-07
3.64598e-08
7.06266e-07
3.1318e-08
7.07933e-07
2.68375e-08
7.09331e-07
2.29388e-08
7.10475e-07
1.95487e-08
7.11379e-07
1.66005e-08
7.12065e-07
1.40367e-08
1.18024e-08
7.12548e-07
5.20093e-07
4.94087e-08
5.15691e-07
8.56062e-08
5.16859e-07
9.05572e-08
5.21518e-07
8.50599e-08
5.27895e-07
7.62292e-08
5.34822e-07
6.68744e-08
5.41658e-07
5.80665e-08
5.48083e-07
5.01424e-08
5.53956e-07
4.31599e-08
5.59227e-07
3.70712e-08
5.63896e-07
3.17903e-08
5.67992e-07
2.72216e-08
5.71556e-07
2.3273e-08
5.74635e-07
1.98603e-08
5.77274e-07
1.69089e-08
5.79521e-07
1.43543e-08
5.81416e-07
1.21416e-08
1.02209e-08
5.82997e-07
3.70044e-07
5.41786e-08
3.73014e-07
8.26354e-08
3.81502e-07
8.207e-08
3.92197e-07
7.43646e-08
4.03271e-07
6.5155e-08
4.13831e-07
5.63139e-08
4.23523e-07
4.83752e-08
4.32239e-07
4.14265e-08
4.39982e-07
3.54161e-08
4.46807e-07
3.02465e-08
4.52787e-07
2.58102e-08
4.58004e-07
2.20048e-08
4.62538e-07
1.8739e-08
4.66465e-07
1.5933e-08
4.69855e-07
1.35185e-08
4.72772e-07
1.14375e-08
4.75271e-07
9.64202e-09
8.09058e-09
4.77402e-07
2.55904e-07
5.43342e-08
2.66166e-07
7.23732e-08
2.80418e-07
6.78185e-08
2.95126e-07
5.96567e-08
3.08902e-07
5.13789e-08
3.21326e-07
4.389e-08
3.3235e-07
3.73506e-08
3.42048e-07
3.17289e-08
3.50532e-07
2.69321e-08
3.57927e-07
2.28509e-08
3.64358e-07
1.93799e-08
3.69938e-07
1.64246e-08
3.74772e-07
1.39048e-08
3.78953e-07
1.17521e-08
3.82562e-07
9.90894e-09
3.85673e-07
8.32697e-09
3.88347e-07
6.96737e-09
5.79898e-09
3.90638e-07
1.7132e-07
4.87252e-08
1.87678e-07
5.60147e-08
2.05567e-07
4.99296e-08
2.2224e-07
4.29836e-08
2.37e-07
3.66189e-08
2.49899e-07
3.09917e-08
2.61119e-07
2.61305e-08
2.70848e-07
2.2e-08
2.79266e-07
1.8514e-08
2.8654e-07
1.55765e-08
2.92821e-07
1.30988e-08
2.98241e-07
1.10054e-08
3.02913e-07
9.23223e-09
3.06939e-07
7.72664e-09
3.10403e-07
6.44485e-09
3.1338e-07
5.34979e-09
3.15935e-07
4.41194e-09
3.61148e-09
3.18122e-07
1.10192e-07
3.68196e-08
1.30505e-07
3.57011e-08
1.49574e-07
3.08614e-08
1.66368e-07
2.61886e-08
1.80772e-07
2.22156e-08
1.93126e-07
1.86379e-08
2.03723e-07
1.55332e-08
2.12804e-07
1.29189e-08
2.20582e-07
1.07361e-08
2.27243e-07
8.91523e-09
2.32948e-07
7.39418e-09
2.37833e-07
6.12055e-09
2.42014e-07
5.0508e-09
2.45591e-07
4.14974e-09
2.48647e-07
3.38869e-09
2.51254e-07
2.74282e-09
2.53475e-07
2.19031e-09
1.72309e-09
2.55364e-07
6.69163e-08
1.8895e-08
8.76245e-08
1.49929e-08
1.05142e-07
1.33443e-08
1.20374e-07
1.09555e-08
1.33293e-07
9.29727e-09
1.44236e-07
7.69487e-09
1.53492e-07
6.27721e-09
1.61313e-07
5.09844e-09
1.6792e-07
4.12896e-09
1.73503e-07
3.33193e-09
1.78221e-07
2.67611e-09
1.82206e-07
2.13532e-09
1.85569e-07
1.68762e-09
1.88403e-07
1.31611e-09
1.90785e-07
1.00714e-09
1.92779e-07
7.48692e-10
1.94441e-07
5.27487e-10
3.38838e-10
1.95825e-07
3.26875e-08
4.76804e-08
6.10247e-08
7.19802e-08
8.12775e-08
8.89724e-08
9.52496e-08
1.00348e-07
1.04477e-07
1.07809e-07
1.10485e-07
1.1262e-07
1.14308e-07
1.15624e-07
1.16631e-07
1.1738e-07
1.17907e-07
1.18246e-07
4.77321e-09
-4.76656e-09
9.37756e-09
-4.59311e-09
1.07592e-08
-1.37086e-09
8.65002e-09
2.11839e-09
3.68414e-09
4.97588e-09
-3.36836e-09
7.06032e-09
-1.19269e-08
8.5677e-09
-2.16006e-08
9.67911e-09
-3.20972e-08
1.05048e-08
-4.3211e-08
1.11168e-08
-5.47487e-08
1.15448e-08
-6.65469e-08
1.17991e-08
-7.84254e-08
1.1885e-08
-9.02348e-08
1.18092e-08
-1.01811e-07
1.1583e-08
-1.13033e-07
1.12214e-08
-1.23768e-07
1.07422e-08
-1.33934e-07
1.01644e-08
-1.43435e-07
9.50756e-09
-1.52227e-07
8.7899e-09
-1.60249e-07
8.02861e-09
-1.6749e-07
7.23742e-09
-1.73912e-07
6.4284e-09
-1.79527e-07
5.61084e-09
-1.84315e-07
4.79325e-09
-1.883e-07
3.98102e-09
-1.91471e-07
3.17882e-09
-1.93861e-07
2.38802e-09
-1.95463e-07
1.61071e-09
-1.96312e-07
8.49111e-10
-1.96416e-07
1.13796e-10
-1.95844e-07
-5.69145e-10
-1.94645e-07
-1.18877e-09
-1.92878e-07
-1.76161e-09
-1.9057e-07
-2.296e-09
-1.87766e-07
-2.79844e-09
-1.84483e-07
-3.27113e-09
-1.80759e-07
-3.71688e-09
-1.76612e-07
-4.13653e-09
-1.72074e-07
-4.53141e-09
-1.67164e-07
-4.90128e-09
-1.61911e-07
-5.24698e-09
-1.56336e-07
-5.56817e-09
-1.50464e-07
-5.86549e-09
-1.4432e-07
-6.13874e-09
-1.37925e-07
-6.38845e-09
-1.31305e-07
-6.61464e-09
-1.2448e-07
-6.81777e-09
-1.17476e-07
-6.99818e-09
-1.1031e-07
-7.15653e-09
-1.03009e-07
-7.29338e-09
-9.55866e-08
-7.40868e-09
-8.80735e-08
-7.50421e-09
-8.04771e-08
-7.57949e-09
-7.28323e-08
-7.6358e-09
-6.51403e-08
-7.67311e-09
-5.74372e-08
-7.69331e-09
-4.97214e-08
-7.69624e-09
-4.20295e-08
-7.68415e-09
-3.43545e-08
-7.65619e-09
-2.67334e-08
-7.61471e-09
-1.91585e-08
-7.5585e-09
-1.16687e-08
-7.48804e-09
-4.25827e-09
-7.39744e-09
3.04758e-09
-7.30702e-09
1.02801e-08
-7.22189e-09
1.74005e-08
-7.12272e-09
2.4416e-08
-7.00631e-09
3.12931e-08
-6.87993e-09
3.80455e-08
-6.74443e-09
4.46455e-08
-6.60333e-09
5.11087e-08
-6.45614e-09
5.7411e-08
-6.30554e-09
6.35688e-08
-6.15077e-09
6.95613e-08
-5.99436e-09
7.54045e-08
-5.83535e-09
8.10804e-08
-5.67583e-09
8.66024e-08
-5.51509e-09
9.19557e-08
-5.35502e-09
9.7155e-08
-5.19465e-09
1.02188e-07
-5.03559e-09
1.07067e-07
-4.87713e-09
1.11783e-07
-4.72072e-09
1.16348e-07
-4.56552e-09
1.20756e-07
-4.4128e-09
1.25017e-07
-4.26199e-09
1.29125e-07
-4.114e-09
1.33087e-07
-3.96791e-09
1.369e-07
-3.82383e-09
1.40569e-07
-3.68252e-09
1.44102e-07
-3.5439e-09
1.47503e-07
-3.40819e-09
1.50772e-07
-3.2754e-09
1.53913e-07
-3.14549e-09
1.56927e-07
-3.01846e-09
1.59818e-07
-2.89434e-09
1.62587e-07
-2.77317e-09
1.65239e-07
-2.65494e-09
1.67776e-07
-2.53966e-09
1.702e-07
-2.42725e-09
1.72516e-07
-2.31779e-09
1.74727e-07
-2.21111e-09
1.76834e-07
-2.10736e-09
1.78841e-07
-2.0062e-09
1.8075e-07
-1.90786e-09
1.82563e-07
-1.81196e-09
1.84282e-07
-1.71883e-09
1.85911e-07
-1.62813e-09
1.87451e-07
-1.54021e-09
1.88906e-07
-1.4548e-09
1.90278e-07
-1.37219e-09
1.9157e-07
-1.29197e-09
1.92783e-07
-1.21432e-09
1.93921e-07
-1.13878e-09
1.94985e-07
-1.06556e-09
1.95979e-07
-9.9429e-10
1.96902e-07
-9.25199e-10
1.97759e-07
-8.57954e-10
1.98549e-07
-7.92791e-10
1.99277e-07
-7.29488e-10
1.99943e-07
-6.6819e-10
2.00551e-07
-6.08675e-10
2.01101e-07
-5.51094e-10
2.01596e-07
-4.95182e-10
2.02036e-07
-4.41165e-10
2.02424e-07
-3.88746e-10
2.0276e-07
-3.38082e-10
2.03048e-07
-2.88909e-10
2.03288e-07
-2.41401e-10
2.03481e-07
-1.95226e-10
2.0363e-07
-1.50538e-10
2.03735e-07
-1.06952e-10
2.03798e-07
-6.44286e-11
2.03817e-07
-2.08907e-11
2.03791e-07
2.36496e-11
2.03723e-07
6.61258e-11
2.03616e-07
1.04871e-10
2.03473e-07
1.40654e-10
2.03296e-07
1.73939e-10
2.03088e-07
2.05334e-10
2.02849e-07
2.35082e-10
2.02583e-07
2.63465e-10
2.02289e-07
2.90729e-10
2.01969e-07
3.17095e-10
2.01624e-07
3.42633e-10
2.01254e-07
3.67432e-10
2.0086e-07
3.915e-10
2.00443e-07
4.14883e-10
2.00004e-07
4.37575e-10
1.99542e-07
4.59659e-10
1.99059e-07
4.81166e-10
1.98555e-07
5.02143e-10
1.98031e-07
5.22567e-10
1.97487e-07
5.42478e-10
1.96923e-07
5.61908e-10
1.9634e-07
5.80958e-10
1.95739e-07
5.99722e-10
1.95119e-07
6.18351e-10
1.9448e-07
6.36993e-10
1.93823e-07
6.55883e-10
1.93146e-07
6.75293e-10
1.92449e-07
6.9555e-10
1.91731e-07
7.17019e-10
1.90989e-07
7.40269e-10
1.90222e-07
7.66285e-10
1.89425e-07
7.95803e-10
1.88593e-07
8.30191e-10
1.8772e-07
8.7176e-10
1.86796e-07
9.23832e-10
1.85804e-07
9.89989e-10
1.84728e-07
1.0755e-09
1.83537e-07
1.18998e-09
1.82191e-07
1.34526e-09
1.80625e-07
1.56455e-09
1.78738e-07
1.88702e-09
1.76343e-07
2.39377e-09
1.73112e-07
3.23029e-09
1.68458e-07
4.65439e-09
1.61164e-07
7.29351e-09
1.25779e-08
1.48586e-07
1.28201e-09
-6.0406e-09
-1.33385e-09
-1.96545e-09
-6.90643e-09
4.20985e-09
-1.43866e-08
9.60466e-09
-2.33533e-08
1.39481e-08
-3.35421e-08
1.72535e-08
-4.46264e-08
1.96567e-08
-5.62731e-08
2.13289e-08
-6.81861e-08
2.24218e-08
-8.01167e-08
2.30493e-08
-9.18572e-08
2.32885e-08
-1.03249e-07
2.31915e-08
-1.14161e-07
2.27998e-08
-1.24502e-07
2.21513e-08
-1.34199e-07
2.12828e-08
-1.43207e-07
2.02299e-08
-1.5149e-07
1.90276e-08
-1.59033e-07
1.77085e-08
-1.65826e-07
1.63028e-08
-1.71873e-07
1.48372e-08
-1.77177e-07
1.33348e-08
-1.81754e-07
1.18149e-08
-1.85617e-07
1.02933e-08
-1.8879e-07
8.7825e-09
-1.91287e-07
7.29271e-09
-1.93137e-07
5.83142e-09
-1.9436e-07
4.40476e-09
-1.9499e-07
3.01775e-09
-1.95051e-07
1.67593e-09
-1.94586e-07
3.85423e-10
-1.93621e-07
-8.46967e-10
-1.92168e-07
-2.02011e-09
-1.90215e-07
-3.13681e-09
-1.87774e-07
-4.19945e-09
-1.84855e-07
-5.20976e-09
-1.8148e-07
-6.16963e-09
-1.77666e-07
-7.0802e-09
-1.73436e-07
-7.94263e-09
-1.68811e-07
-8.75754e-09
-1.63813e-07
-9.52554e-09
-1.58463e-07
-1.02468e-08
-1.52785e-07
-1.09216e-08
-1.468e-07
-1.15501e-08
-1.4053e-07
-1.21325e-08
-1.33996e-07
-1.26691e-08
-1.27221e-07
-1.31604e-08
-1.20227e-07
-1.36066e-08
-1.13032e-07
-1.40083e-08
-1.05661e-07
-1.43663e-08
-9.81318e-08
-1.46816e-08
-9.04656e-08
-1.49555e-08
-8.26799e-08
-1.51884e-08
-7.47975e-08
-1.53816e-08
-6.68343e-08
-1.5536e-08
-5.88112e-08
-1.56533e-08
-5.07422e-08
-1.57346e-08
-4.26478e-08
-1.57817e-08
-3.45405e-08
-1.57961e-08
-2.64393e-08
-1.57797e-08
-1.83545e-08
-1.57339e-08
-1.03036e-08
-1.56608e-08
-2.29432e-09
-1.55619e-08
5.65992e-09
-1.54391e-08
1.35585e-08
-1.52919e-08
2.1377e-08
-1.51236e-08
2.90944e-08
-1.4936e-08
3.67015e-08
-1.47286e-08
4.41998e-08
-1.45018e-08
5.15795e-08
-1.42589e-08
5.88387e-08
-1.40014e-08
6.59679e-08
-1.37322e-08
7.29663e-08
-1.34526e-08
7.98257e-08
-1.31648e-08
8.65465e-08
-1.28698e-08
9.31225e-08
-1.25697e-08
9.9555e-08
-1.22652e-08
1.05838e-07
-1.19581e-08
1.11974e-07
-1.16489e-08
1.17959e-07
-1.13392e-08
1.23794e-07
-1.10292e-08
1.29479e-07
-1.07204e-08
1.35014e-07
-1.04128e-08
1.404e-07
-1.01077e-08
1.45638e-07
-9.805e-09
1.50729e-07
-9.50588e-09
1.55676e-07
-9.21022e-09
1.60478e-07
-8.91875e-09
1.65138e-07
-8.63104e-09
1.69655e-07
-8.34742e-09
1.74033e-07
-8.0681e-09
1.78276e-07
-7.79371e-09
1.82388e-07
-7.52453e-09
1.8637e-07
-7.26044e-09
1.90223e-07
-7.00158e-09
1.93951e-07
-6.74779e-09
1.97553e-07
-6.49933e-09
2.01034e-07
-6.25605e-09
2.04396e-07
-6.01815e-09
2.0764e-07
-5.78544e-09
2.1077e-07
-5.55808e-09
2.13787e-07
-5.33588e-09
2.16694e-07
-5.11889e-09
2.19494e-07
-4.90697e-09
2.22189e-07
-4.70005e-09
2.2478e-07
-4.49807e-09
2.2727e-07
-4.30098e-09
2.29661e-07
-4.10881e-09
2.31955e-07
-3.92143e-09
2.34154e-07
-3.73885e-09
2.3626e-07
-3.56097e-09
2.38275e-07
-3.38772e-09
2.40201e-07
-3.21892e-09
2.42041e-07
-3.05457e-09
2.43796e-07
-2.89451e-09
2.45469e-07
-2.73867e-09
2.4706e-07
-2.58686e-09
2.48573e-07
-2.43902e-09
2.50009e-07
-2.29507e-09
2.51369e-07
-2.15494e-09
2.52657e-07
-2.01854e-09
2.53873e-07
-1.88585e-09
2.55021e-07
-1.75677e-09
2.561e-07
-1.6313e-09
2.57114e-07
-1.50932e-09
2.58063e-07
-1.39083e-09
2.58949e-07
-1.27566e-09
2.59774e-07
-1.16378e-09
2.60539e-07
-1.05506e-09
2.61246e-07
-9.49503e-10
2.61896e-07
-8.46929e-10
2.62492e-07
-7.4729e-10
2.63034e-07
-6.5036e-10
2.63524e-07
-5.55984e-10
2.63965e-07
-4.63779e-10
2.64361e-07
-3.73563e-10
2.64711e-07
-2.85806e-10
2.65016e-07
-2.0142e-10
2.65275e-07
-1.20705e-10
2.6549e-07
-4.33946e-11
2.65662e-07
3.08301e-11
2.65792e-07
1.02098e-10
2.65882e-07
1.70512e-10
2.65934e-07
2.36473e-10
2.65949e-07
3.00185e-10
2.65928e-07
3.61909e-10
2.65871e-07
4.21733e-10
2.65781e-07
4.79824e-10
2.65658e-07
5.36193e-10
2.65503e-07
5.90943e-10
2.65317e-07
6.4412e-10
2.65101e-07
6.95887e-10
2.64855e-07
7.46271e-10
2.64581e-07
7.95365e-10
2.64279e-07
8.43211e-10
2.63949e-07
8.89957e-10
2.63593e-07
9.35721e-10
2.63211e-07
9.80742e-10
2.62802e-07
1.02524e-09
2.62368e-07
1.06957e-09
2.61909e-07
1.1141e-09
2.61424e-07
1.15937e-09
2.60912e-07
1.20594e-09
2.60373e-07
1.25464e-09
2.59806e-07
1.30661e-09
2.59207e-07
1.36337e-09
2.58576e-07
1.4266e-09
2.57906e-07
1.49906e-09
2.57192e-07
1.58471e-09
2.56426e-07
1.6888e-09
2.55597e-07
1.81806e-09
2.54688e-07
1.98331e-09
2.53678e-07
2.19918e-09
2.52532e-07
2.49029e-09
2.51202e-07
2.89401e-09
2.4961e-07
3.47764e-09
2.4765e-07
4.35381e-09
2.45133e-07
5.74654e-09
2.4182e-07
7.96729e-09
2.37113e-07
1.20006e-08
1.9199e-08
2.30492e-07
-4.346e-09
-1.68911e-09
-1.26373e-08
6.33308e-09
-2.18459e-08
1.34228e-08
-3.13232e-08
1.90849e-08
-4.09877e-08
2.36155e-08
-5.08509e-08
2.71188e-08
-6.08772e-08
2.96853e-08
-7.09701e-08
3.14233e-08
-8.09953e-08
3.24489e-08
-9.08167e-08
3.28717e-08
-1.00313e-07
3.27869e-08
-1.09397e-07
3.22754e-08
-1.18001e-07
3.14049e-08
-1.26083e-07
3.0234e-08
-1.33614e-07
2.88152e-08
-1.40579e-07
2.71954e-08
-1.46967e-07
2.54169e-08
-1.52776e-07
2.35177e-08
-1.58003e-07
2.15309e-08
-1.62651e-07
1.94855e-08
-1.66721e-07
1.74062e-08
-1.7022e-07
1.53138e-08
-1.7315e-07
1.32256e-08
-1.75523e-07
1.11555e-08
-1.77344e-07
9.11523e-09
-1.78626e-07
7.1138e-09
-1.79378e-07
5.15873e-09
-1.79616e-07
3.2563e-09
-1.79351e-07
1.41207e-09
-1.78595e-07
-3.69165e-10
-1.77356e-07
-2.08413e-09
-1.75642e-07
-3.73233e-09
-1.73462e-07
-5.3141e-09
-1.70831e-07
-6.82946e-09
-1.67759e-07
-8.27846e-09
-1.64266e-07
-9.66116e-09
-1.60366e-07
-1.09776e-08
-1.56078e-07
-1.2228e-08
-1.51421e-07
-1.34121e-08
-1.46415e-07
-1.45301e-08
-1.41078e-07
-1.55818e-08
-1.3543e-07
-1.65672e-08
-1.29492e-07
-1.74863e-08
-1.23283e-07
-1.83394e-08
-1.16824e-07
-1.91266e-08
-1.10134e-07
-1.98483e-08
-1.03234e-07
-2.05051e-08
-9.61427e-08
-2.10977e-08
-8.88801e-08
-2.16271e-08
-8.1465e-08
-2.20944e-08
-7.39169e-08
-2.25014e-08
-6.62533e-08
-2.28491e-08
-5.84932e-08
-2.31389e-08
-5.06534e-08
-2.33726e-08
-4.27516e-08
-2.3552e-08
-3.48034e-08
-2.36791e-08
-2.68256e-08
-2.37562e-08
-1.88325e-08
-2.37855e-08
-1.08392e-08
-2.37697e-08
-2.85808e-09
-2.37115e-08
5.09694e-09
-2.36129e-08
1.30135e-08
-2.34756e-08
2.08784e-08
-2.33016e-08
2.86814e-08
-2.30925e-08
3.641e-08
-2.28504e-08
4.40532e-08
-2.25774e-08
5.16024e-08
-2.22763e-08
5.90514e-08
-2.19494e-08
6.63932e-08
-2.15996e-08
7.36224e-08
-2.12297e-08
8.07331e-08
-2.08423e-08
8.7721e-08
-2.04398e-08
9.45814e-08
-2.00247e-08
1.01311e-07
-1.9599e-08
1.07907e-07
-1.9165e-08
1.14367e-07
-1.87243e-08
1.20688e-07
-1.82787e-08
1.2687e-07
-1.78299e-08
1.3291e-07
-1.73791e-08
1.38809e-07
-1.69277e-08
1.44565e-07
-1.64769e-08
1.5018e-07
-1.60277e-08
1.55653e-07
-1.5581e-08
1.60985e-07
-1.51376e-08
1.66176e-07
-1.46984e-08
1.71229e-07
-1.42639e-08
1.76144e-07
-1.38345e-08
1.80921e-07
-1.34105e-08
1.85562e-07
-1.29921e-08
1.9007e-07
-1.25799e-08
1.94447e-07
-1.21743e-08
1.98696e-07
-1.17757e-08
2.02819e-07
-1.13843e-08
2.06816e-07
-1.09999e-08
2.1069e-07
-1.06227e-08
2.14443e-07
-1.02528e-08
2.18076e-07
-9.89019e-09
2.21592e-07
-9.53491e-09
2.24993e-07
-9.18704e-09
2.28281e-07
-8.84648e-09
2.31459e-07
-8.51323e-09
2.34527e-07
-8.1872e-09
2.37489e-07
-7.86827e-09
2.40346e-07
-7.55642e-09
2.43101e-07
-7.25151e-09
2.45754e-07
-6.9536e-09
2.48309e-07
-6.66258e-09
2.50766e-07
-6.37842e-09
2.53128e-07
-6.10095e-09
2.55397e-07
-5.83013e-09
2.57575e-07
-5.56572e-09
2.59664e-07
-5.30767e-09
2.61665e-07
-5.05586e-09
2.6358e-07
-4.81025e-09
2.65412e-07
-4.57065e-09
2.67161e-07
-4.33696e-09
2.68831e-07
-4.10906e-09
2.70421e-07
-3.88687e-09
2.71936e-07
-3.67027e-09
2.73376e-07
-3.45916e-09
2.74743e-07
-3.25345e-09
2.76038e-07
-3.05305e-09
2.77265e-07
-2.8579e-09
2.78423e-07
-2.66793e-09
2.79515e-07
-2.48305e-09
2.80542e-07
-2.30315e-09
2.81506e-07
-2.12809e-09
2.82408e-07
-1.95783e-09
2.8325e-07
-1.79229e-09
2.84034e-07
-1.63135e-09
2.84761e-07
-1.47484e-09
2.85432e-07
-1.32262e-09
2.8605e-07
-1.17453e-09
2.86615e-07
-1.03055e-09
2.87131e-07
-8.90589e-10
2.87599e-07
-7.54578e-10
2.88019e-07
-6.2282e-10
2.88393e-07
-4.95574e-10
2.88721e-07
-3.72806e-10
2.89004e-07
-2.54251e-10
2.89245e-07
-1.39712e-10
2.89443e-07
-2.90351e-11
2.896e-07
7.79387e-11
2.89717e-07
1.81414e-10
2.89796e-07
2.81626e-10
2.89838e-07
3.78789e-10
2.89844e-07
4.7307e-10
2.89815e-07
5.64619e-10
2.89751e-07
6.53505e-10
2.89655e-07
7.3986e-10
2.89526e-07
8.2382e-10
2.89366e-07
9.0552e-10
2.89175e-07
9.85091e-10
2.88955e-07
1.06268e-09
2.88706e-07
1.13847e-09
2.88428e-07
1.21269e-09
2.88122e-07
1.28563e-09
2.87789e-07
1.35766e-09
2.87429e-07
1.42923e-09
2.87041e-07
1.50091e-09
2.86626e-07
1.57342e-09
2.86184e-07
1.64766e-09
2.85713e-07
1.72474e-09
2.85213e-07
1.80635e-09
2.84681e-07
1.89459e-09
2.84115e-07
1.99209e-09
2.83511e-07
2.10264e-09
2.82864e-07
2.23162e-09
2.82166e-07
2.38615e-09
2.81408e-07
2.57587e-09
2.80575e-07
2.81551e-09
2.79648e-07
3.12549e-09
2.78599e-07
3.53913e-09
2.77388e-07
4.10484e-09
2.75959e-07
4.90631e-09
2.74234e-07
6.07787e-09
2.72114e-07
7.86635e-09
2.69476e-07
1.06051e-08
2.66228e-07
1.52485e-08
2.27936e-08
2.62633e-07
-7.76258e-09
6.07778e-09
-1.83367e-08
1.69121e-08
-2.88629e-08
2.3952e-08
-3.89257e-08
2.91497e-08
-4.8524e-08
3.32157e-08
-5.7738e-08
3.63339e-08
-6.66366e-08
3.85854e-08
-7.52537e-08
4.00412e-08
-8.35855e-08
4.07818e-08
-9.16077e-08
4.08943e-08
-9.92854e-08
4.04655e-08
-1.06587e-07
3.95771e-08
-1.13484e-07
3.8303e-08
-1.19959e-07
3.67086e-08
-1.25995e-07
3.48516e-08
-1.31582e-07
3.27831e-08
-1.36713e-07
3.05481e-08
-1.41381e-07
2.8186e-08
-1.4558e-07
2.57312e-08
-1.49308e-07
2.32135e-08
-1.52559e-07
2.06585e-08
-1.55333e-07
1.80879e-08
-1.57626e-07
1.55201e-08
-1.59441e-07
1.29706e-08
-1.60776e-07
1.04522e-08
-1.61638e-07
7.9754e-09
-1.62027e-07
5.54914e-09
-1.61951e-07
3.18073e-09
-1.61413e-07
8.76275e-10
-1.60423e-07
-1.35934e-09
-1.58983e-07
-3.52252e-09
-1.57104e-07
-5.6109e-09
-1.54793e-07
-7.62283e-09
-1.52065e-07
-9.55684e-09
-1.4893e-07
-1.14117e-08
-1.45404e-07
-1.31863e-08
-1.41501e-07
-1.48798e-08
-1.37236e-07
-1.64913e-08
-1.32627e-07
-1.802e-08
-1.2769e-07
-1.94653e-08
-1.22444e-07
-2.08268e-08
-1.16906e-07
-2.21039e-08
-1.11094e-07
-2.32966e-08
-1.05027e-07
-2.44048e-08
-9.87241e-08
-2.54286e-08
-9.22027e-08
-2.63684e-08
-8.54817e-08
-2.72248e-08
-7.85794e-08
-2.79987e-08
-7.15141e-08
-2.86911e-08
-6.43034e-08
-2.93035e-08
-5.69657e-08
-2.98377e-08
-4.95176e-08
-3.02955e-08
-4.19762e-08
-3.06785e-08
-3.43577e-08
-3.09891e-08
-2.66784e-08
-3.12294e-08
-1.89532e-08
-3.1402e-08
-1.11975e-08
-3.15098e-08
-3.42497e-09
-3.15557e-08
4.35011e-09
-3.15426e-08
1.21142e-08
-3.14732e-08
1.98538e-08
-3.13503e-08
2.75568e-08
-3.11765e-08
3.52115e-08
-3.09545e-08
4.28076e-08
-3.06869e-08
5.03355e-08
-3.03766e-08
5.77863e-08
-3.00267e-08
6.51519e-08
-2.96406e-08
7.24253e-08
-2.92216e-08
7.95998e-08
-2.87732e-08
8.66696e-08
-2.82987e-08
9.36293e-08
-2.78014e-08
1.00474e-07
-2.72844e-08
1.072e-07
-2.67505e-08
1.13804e-07
-2.62025e-08
1.20282e-07
-2.56429e-08
1.26633e-07
-2.50742e-08
1.32853e-07
-2.44986e-08
1.38941e-07
-2.39179e-08
1.44896e-07
-2.33342e-08
1.50718e-07
-2.27489e-08
1.56404e-07
-2.21638e-08
1.61956e-07
-2.158e-08
1.67374e-07
-2.09988e-08
1.72657e-07
-2.04213e-08
1.77807e-07
-1.98485e-08
1.82823e-07
-1.92811e-08
1.87708e-07
-1.87199e-08
1.92462e-07
-1.81652e-08
1.97085e-07
-1.76176e-08
2.0158e-07
-1.70775e-08
2.05949e-07
-1.65456e-08
2.10195e-07
-1.60223e-08
2.14317e-07
-1.55078e-08
2.18319e-07
-1.5002e-08
2.22202e-07
-1.45053e-08
2.25966e-07
-1.40176e-08
2.29615e-07
-1.35391e-08
2.3315e-07
-1.30697e-08
2.36572e-07
-1.26096e-08
2.39885e-07
-1.21587e-08
2.43089e-07
-1.1717e-08
2.46187e-07
-1.12844e-08
2.4918e-07
-1.08607e-08
2.52071e-07
-1.0446e-08
2.5486e-07
-1.00401e-08
2.57551e-07
-9.64306e-09
2.60143e-07
-9.25478e-09
2.6264e-07
-8.87523e-09
2.65044e-07
-8.50415e-09
2.67355e-07
-8.14153e-09
2.69577e-07
-7.78709e-09
2.71709e-07
-7.44078e-09
2.73756e-07
-7.10244e-09
2.75717e-07
-6.77204e-09
2.77596e-07
-6.44936e-09
2.79393e-07
-6.13436e-09
2.8111e-07
-5.82688e-09
2.82749e-07
-5.52684e-09
2.84312e-07
-5.23407e-09
2.85801e-07
-4.94848e-09
2.87217e-07