/*--------------------------------*- C++ -*----------------------------------*\
  =========                 |
  \\      /  F ield         | OpenFOAM: The Open Source CFD Toolbox
   \\    /   O peration     | Website:  https://openfoam.org
    \\  /    A nd           | Version:  6
     \\/     M anipulation  |
\*---------------------------------------------------------------------------*/
FoamFile
{
    version     2.0;
    format      ascii;
    class       volVectorField;
    location    "100";
    object      U;
}
// * * * * * * * * * * * * * * * * * * * * * * * * * * * * * * * * * * * * * //

dimensions      [0 1 -1 0 0 0 0];

internalField   nonuniform List<vector> 
12225
(
(0.0396297 -0.0374351 0)
(0.0853161 -0.00786221 0)
(0.111683 -0.00485947 0)
(0.136033 -0.00421795 0)
(0.15768 -0.00361078 0)
(0.175705 -0.003003 0)
(0.190475 -0.00249156 0)
(0.202665 -0.00208221 0)
(0.212837 -0.00176216 0)
(0.221455 -0.0015188 0)
(0.228918 -0.00134455 0)
(0.23559 -0.00124039 0)
(0.241846 -0.00122011 0)
(0.24814 -0.00132413 0)
(0.255217 -0.00165481 0)
(0.264385 -0.00253297 0)
(0.279839 -0.00471684 0)
(0.305569 -0.0152668 0)
(0.103548 -0.0136708 0)
(0.138863 -0.0135276 0)
(0.180124 -0.0114594 0)
(0.213676 -0.0102141 0)
(0.24247 -0.00901556 0)
(0.267108 -0.0078287 0)
(0.288118 -0.00679848 0)
(0.306152 -0.00594873 0)
(0.32177 -0.00526849 0)
(0.335456 -0.00474406 0)
(0.347637 -0.00437014 0)
(0.358707 -0.00415913 0)
(0.369065 -0.00415294 0)
(0.379168 -0.00445682 0)
(0.389668 -0.00532034 0)
(0.401483 -0.00743697 0)
(0.416533 -0.0125412 0)
(0.434112 -0.0262905 0)
(0.149118 -0.0191852 0)
(0.178655 -0.0222162 0)
(0.221727 -0.0195584 0)
(0.256289 -0.0174383 0)
(0.285874 -0.015476 0)
(0.311442 -0.0136475 0)
(0.333552 -0.0120615 0)
(0.352789 -0.0107382 0)
(0.369656 -0.00966605 0)
(0.384595 -0.00883029 0)
(0.398004 -0.00822797 0)
(0.410254 -0.00788058 0)
(0.421707 -0.00785154 0)
(0.432756 -0.00828876 0)
(0.443877 -0.00951727 0)
(0.455545 -0.0122996 0)
(0.468194 -0.0182191 0)
(0.479719 -0.0304076 0)
(0.196335 -0.0267615 0)
(0.219393 -0.0316174 0)
(0.258689 -0.0287342 0)
(0.291555 -0.0257231 0)
(0.320139 -0.0229254 0)
(0.345102 -0.0203917 0)
(0.366919 -0.0181945 0)
(0.386087 -0.0163489 0)
(0.403034 -0.0148419 0)
(0.41815 -0.0136577 0)
(0.431792 -0.0127955 0)
(0.44429 -0.0122836 0)
(0.45596 -0.0122004 0)
(0.467117 -0.0127172 0)
(0.478074 -0.014177 0)
(0.488992 -0.0172669 0)
(0.499648 -0.0231124 0)
(0.507944 -0.0330623 0)
(0.246707 -0.0317204 0)
(0.263385 -0.040108 0)
(0.296475 -0.0379506 0)
(0.326149 -0.0343384 0)
(0.352705 -0.0307982 0)
(0.37624 -0.027594 0)
(0.397043 -0.0248007 0)
(0.41549 -0.0224366 0)
(0.431927 -0.0204909 0)
(0.446679 -0.0189499 0)
(0.460051 -0.0178152 0)
(0.472327 -0.0171198 0)
(0.483771 -0.0169485 0)
(0.494617 -0.017474 0)
(0.505045 -0.0190102 0)
(0.515024 -0.0220927 0)
(0.524113 -0.0273964 0)
(0.530575 -0.0352601 0)
(0.300409 -0.0342648 0)
(0.31105 -0.0470432 0)
(0.336938 -0.0463735 0)
(0.3624 -0.042636 0)
(0.386136 -0.0385811 0)
(0.407614 -0.0348235 0)
(0.426869 -0.0315065 0)
(0.444124 -0.0286707 0)
(0.459624 -0.0263164 0)
(0.473624 -0.024436 0)
(0.486372 -0.0230349 0)
(0.498097 -0.0221482 0)
(0.509007 -0.0218589 0)
(0.519263 -0.0223231 0)
(0.528945 -0.0237963 0)
(0.537921 -0.0266473 0)
(0.545739 -0.0312067 0)
(0.55108 -0.0373417 0)
(0.357266 -0.0349398 0)
(0.362399 -0.0521748 0)
(0.380853 -0.0535361 0)
(0.401399 -0.0502101 0)
(0.421661 -0.0459512 0)
(0.440543 -0.0418138 0)
(0.457786 -0.0380821 0)
(0.473441 -0.034848 0)
(0.487642 -0.032135 0)
(0.500563 -0.0299475 0)
(0.512386 -0.0282969 0)
(0.523285 -0.0272184 0)
(0.533409 -0.0267863 0)
(0.542857 -0.0271289 0)
(0.551639 -0.0284326 0)
(0.559586 -0.0309181 0)
(0.566318 -0.0346862 0)
(0.570887 -0.0394281 0)
(0.416843 -0.0341247 0)
(0.417171 -0.0553685 0)
(0.428477 -0.059125 0)
(0.443687 -0.0567232 0)
(0.459958 -0.0526163 0)
(0.475769 -0.0483185 0)
(0.490581 -0.0443147 0)
(0.504263 -0.0407797 0)
(0.51683 -0.037776 0)
(0.528368 -0.0353277 0)
(0.538991 -0.0334545 0)
(0.548814 -0.0321912 0)
(0.557929 -0.0315995 0)
(0.566383 -0.0317745 0)
(0.574142 -0.0328359 0)
(0.581036 -0.0348889 0)
(0.586785 -0.0378977 0)
(0.590718 -0.0415243 0)
(0.478477 -0.0321576 0)
(0.474917 -0.0565932 0)
(0.479725 -0.062897 0)
(0.489457 -0.0618529 0)
(0.501373 -0.0582662 0)
(0.513715 -0.0540623 0)
(0.525721 -0.0499609 0)
(0.537086 -0.0462483 0)
(0.547705 -0.0430421 0)
(0.557574 -0.0403946 0)
(0.566737 -0.0383382 0)
(0.575248 -0.0369075 0)
(0.583148 -0.0361507 0)
(0.590439 -0.0361304 0)
(0.597064 -0.0369093 0)
(0.60287 -0.0385112 0)
(0.60767 -0.0408318 0)
(0.610983 -0.0435684 0)
(0.541363 -0.0293896 0)
(0.535019 -0.055924 0)
(0.534215 -0.0646956 0)
(0.538599 -0.0653089 0)
(0.545977 -0.0625838 0)
(0.554558 -0.0587451 0)
(0.563441 -0.0547465 0)
(0.572181 -0.0510035 0)
(0.580563 -0.0477034 0)
(0.588495 -0.0449357 0)
(0.595951 -0.0427498 0)
(0.602928 -0.0411827 0)
(0.60942 -0.0402704 0)
(0.615394 -0.040048 0)
(0.620777 -0.0405345 0)
(0.625445 -0.0417032 0)
(0.629279 -0.0434254 0)
(0.631916 -0.0454544 0)
(0.604654 -0.0261389 0)
(0.596629 -0.0535548 0)
(0.591277 -0.0644652 0)
(0.590706 -0.0668637 0)
(0.593561 -0.0652739 0)
(0.598221 -0.0620612 0)
(0.603747 -0.0583767 0)
(0.609609 -0.0547683 0)
(0.615499 -0.0515012 0)
(0.621252 -0.048709 0)
(0.626776 -0.0464632 0)
(0.632015 -0.0448063 0)
(0.63692 -0.0437661 0)
(0.641433 -0.0433571 0)
(0.645472 -0.0435696 0)
(0.648934 -0.0443499 0)
(0.651749 -0.0455712 0)
(0.653621 -0.0470428 0)
(0.662248 -0.0229157 0)
(0.653557 -0.0501154 0)
(0.64511 -0.0624757 0)
(0.640561 -0.0664451 0)
(0.639474 -0.0660446 0)
(0.640533 -0.0636012 0)
(0.642866 -0.0603865 0)
(0.645921 -0.0570556 0)
(0.649343 -0.0539444 0)
(0.65291 -0.0512295 0)
(0.656483 -0.0490058 0)
(0.659964 -0.0473241 0)
(0.663272 -0.0462094 0)
(0.666326 -0.0456647 0)
(0.669041 -0.0456652 0)
(0.671327 -0.0461485 0)
(0.673142 -0.0469997 0)
(0.674216 -0.0480797 0)
(0.718119 -0.019681 0)
(0.709446 -0.045831 0)
(0.698878 -0.0590974 0)
(0.690983 -0.0644314 0)
(0.6863 -0.0652395 0)
(0.683905 -0.0636753 0)
(0.683067 -0.0610595 0)
(0.683268 -0.0581291 0)
(0.684138 -0.0552815 0)
(0.685422 -0.0527342 0)
(0.686942 -0.0506061 0)
(0.688568 -0.0489591 0)
(0.690191 -0.0478191 0)
(0.691714 -0.0471837 0)
(0.693049 -0.0470219 0)
(0.694114 -0.0472713 0)
(0.694876 -0.0478335 0)
(0.695089 -0.0486139 0)
(0.779262 -0.0161798 0)
(0.771179 -0.0400719 0)
(0.759321 -0.0536053 0)
(0.748499 -0.0600802 0)
(0.740282 -0.0621564 0)
(0.734266 -0.0616609 0)
(0.729945 -0.0598591 0)
(0.72691 -0.0575303 0)
(0.724823 -0.0551218 0)
(0.723422 -0.0528892 0)
(0.722505 -0.0509769 0)
(0.721917 -0.049461 0)
(0.721528 -0.0483726 0)
(0.721227 -0.0477101 0)
(0.720921 -0.047444 0)
(0.720532 -0.0475195 0)
(0.720023 -0.0478604 0)
(0.719171 -0.0484038 0)
(0.843509 -0.0125833 0)
(0.836416 -0.0329037 0)
(0.824221 -0.0457114 0)
(0.811253 -0.0527632 0)
(0.799927 -0.0559125 0)
(0.790428 -0.0565386 0)
(0.782547 -0.0557183 0)
(0.776062 -0.0541952 0)
(0.77073 -0.0524303 0)
(0.766321 -0.0507016 0)
(0.762637 -0.0491727 0)
(0.759516 -0.0479335 0)
(0.756815 -0.047024 0)
(0.754416 -0.0464488 0)
(0.752218 -0.0461864 0)
(0.750145 -0.0461957 0)
(0.748147 -0.0464236 0)
(0.746024 -0.0468302 0)
(0.906632 -0.00898334 0)
(0.900645 -0.0245504 0)
(0.888927 -0.035354 0)
(0.874816 -0.0420376 0)
(0.861184 -0.0457022 0)
(0.848744 -0.047233 0)
(0.837607 -0.0474014 0)
(0.827782 -0.0468122 0)
(0.819184 -0.0458764 0)
(0.811665 -0.0448571 0)
(0.80507 -0.0439171 0)
(0.799248 -0.0431511 0)
(0.794064 -0.0426054 0)
(0.789399 -0.0422931 0)
(0.785149 -0.042204 0)
(0.781234 -0.042313 0)
(0.777591 -0.0425884 0)
(0.77405 -0.0430073 0)
(0.961094 -0.00535431 0)
(0.956025 -0.0152114 0)
(0.945193 -0.0226568 0)
(0.930846 -0.0277491 0)
(0.915906 -0.0310068 0)
(0.901439 -0.0328715 0)
(0.887807 -0.0337631 0)
(0.875232 -0.0340565 0)
(0.863806 -0.0340335 0)
(0.853502 -0.0338859 0)
(0.844233 -0.0337389 0)
(0.835891 -0.0336688 0)
(0.828361 -0.0337164 0)
(0.821536 -0.0338969 0)
(0.815316 -0.0342082 0)
(0.809615 -0.0346382 0)
(0.804362 -0.0351716 0)
(0.799426 -0.0357979 0)
(0.99417 -0.00154301 0)
(0.989629 -0.00481221 0)
(0.979588 -0.00763951 0)
(0.965486 -0.00988471 0)
(0.950104 -0.0116594 0)
(0.934675 -0.0130541 0)
(0.919689 -0.0141628 0)
(0.905494 -0.0150896 0)
(0.892306 -0.0159214 0)
(0.880195 -0.0167202 0)
(0.86914 -0.0175271 0)
(0.859078 -0.018367 0)
(0.849922 -0.0192518 0)
(0.841581 -0.020184 0)
(0.833964 -0.02116 0)
(0.826986 -0.0221728 0)
(0.820573 -0.023216 0)
(0.814646 -0.0242871 0)
(0.985585 0.00238316 0)
(0.981327 0.00664482 0)
(0.971447 0.00969187 0)
(0.957427 0.0114633 0)
(0.942107 0.0121464 0)
(0.926766 0.0119666 0)
(0.911887 0.0111452 0)
(0.897796 0.00987656 0)
(0.884694 0.00831283 0)
(0.872646 0.0065657 0)
(0.86163 0.00471457 0)
(0.851585 0.00281533 0)
(0.842427 0.000906698 0)
(0.834071 -0.000984434 0)
(0.826429 -0.00283989 0)
(0.81942 -0.00464812 0)
(0.812971 -0.00640398 0)
(0.807059 -0.00810987 0)
(0.925885 0.00687825 0)
(0.91979 0.0189172 0)
(0.908207 0.0273017 0)
(0.89358 0.0321809 0)
(0.87887 0.0343381 0)
(0.86503 0.0345047 0)
(0.852244 0.0333105 0)
(0.84059 0.0312612 0)
(0.830069 0.0287196 0)
(0.820604 0.0259274 0)
(0.812085 0.0230419 0)
(0.804397 0.0201631 0)
(0.797438 0.0173525 0)
(0.79111 0.0146457 0)
(0.785332 0.0120622 0)
(0.78003 0.00960984 0)
(0.775144 0.00728832 0)
(0.770689 0.00508745 0)
(0.844501 0.0119282 0)
(0.837051 0.0306609 0)
(0.824673 0.0421957 0)
(0.810982 0.047996 0)
(0.798674 0.049856 0)
(0.788104 0.0491392 0)
(0.779026 0.0468617 0)
(0.771223 0.0437311 0)
(0.764491 0.0401966 0)
(0.758629 0.0365292 0)
(0.753468 0.0328894 0)
(0.748872 0.0293688 0)
(0.744735 0.0260163 0)
(0.740973 0.0228543 0)
(0.73752 0.0198893 0)
(0.734324 0.017118 0)
(0.731341 0.0145309 0)
(0.728614 0.0121103 0)
(0.748277 0.0174407 0)
(0.739633 0.041535 0)
(0.728142 0.0540995 0)
(0.71774 0.0590337 0)
(0.710047 0.0594161 0)
(0.704547 0.0572064 0)
(0.700552 0.0536595 0)
(0.697603 0.0495286 0)
(0.695371 0.0452328 0)
(0.693614 0.0409978 0)
(0.692163 0.036941 0)
(0.690905 0.033119 0)
(0.689765 0.0295531 0)
(0.688692 0.026245 0)
(0.687653 0.0231851 0)
(0.686625 0.0203588 0)
(0.685593 0.017748 0)
(0.68462 0.01533 0)
(0.645455 0.0232749 0)
(0.63677 0.0503596 0)
(0.628766 0.061585 0)
(0.624191 0.0642881 0)
(0.622908 0.0626613 0)
(0.623592 0.0589566 0)
(0.625287 0.0544113 0)
(0.627449 0.0496599 0)
(0.629753 0.0450077 0)
(0.632004 0.0405957 0)
(0.634092 0.036483 0)
(0.635961 0.0326858 0)
(0.63759 0.0291982 0)
(0.638973 0.0260029 0)
(0.640119 0.023078 0)
(0.641039 0.0203998 0)
(0.641748 0.0179451 0)
(0.642329 0.0156875 0)
(0.541901 0.0288092 0)
(0.535352 0.0556875 0)
(0.533802 0.0637096 0)
(0.537053 0.0636804 0)
(0.543095 0.0602481 0)
(0.550208 0.0555372 0)
(0.557451 0.0505323 0)
(0.564378 0.0456548 0)
(0.570777 0.0410741 0)
(0.57656 0.0368496 0)
(0.581711 0.0329899 0)
(0.586249 0.0294798 0)
(0.590211 0.0262941 0)
(0.593645 0.0234035 0)
(0.596599 0.0207786 0)
(0.599122 0.0183912 0)
(0.601255 0.0162168 0)
(0.603095 0.0142285 0)
(0.441998 0.0330111 0)
(0.440243 0.0564108 0)
(0.447726 0.0604039 0)
(0.459786 0.0580229 0)
(0.473091 0.0535029 0)
(0.486131 0.0484868 0)
(0.498253 0.0435956 0)
(0.509229 0.0390398 0)
(0.519025 0.0348805 0)
(0.527685 0.0311194 0)
(0.535291 0.0277331 0)
(0.541938 0.0246885 0)
(0.547724 0.0219503 0)
(0.552744 0.0194844 0)
(0.557084 0.0172591 0)
(0.560825 0.015246 0)
(0.564031 0.0134213 0)
(0.566814 0.0117612 0)
(0.349086 0.0346222 0)
(0.354344 0.0521351 0)
(0.372523 0.0524012 0)
(0.393235 0.0486438 0)
(0.412936 0.0439476 0)
(0.430913 0.0392967 0)
(0.446957 0.0349822 0)
(0.461107 0.0310748 0)
(0.47351 0.0275745 0)
(0.484336 0.0244536 0)
(0.493759 0.0216743 0)
(0.501942 0.0191973 0)
(0.509036 0.0169857 0)
(0.515177 0.0150062 0)
(0.520482 0.0132289 0)
(0.525059 0.0116277 0)
(0.528993 0.0101818 0)
(0.532406 0.00887303 0)
(0.265405 0.0322605 0)
(0.27904 0.0432063 0)
(0.308106 0.0410589 0)
(0.336236 0.0370904 0)
(0.360939 0.0330313 0)
(0.382619 0.029234 0)
(0.401522 0.0257931 0)
(0.417924 0.0227266 0)
(0.432126 0.0200147 0)
(0.444403 0.0176223 0)
(0.455006 0.0155101 0)
(0.464158 0.0136415 0)
(0.472051 0.0119833 0)
(0.478853 0.010507 0)
(0.484711 0.00918739 0)
(0.489748 0.00800245 0)
(0.494069 0.00693496 0)
(0.497804 0.0059733 0)
(0.191844 0.0252738 0)
(0.214658 0.031068 0)
(0.252403 0.0283902 0)
(0.28568 0.0251767 0)
(0.313667 0.0222413 0)
(0.337687 0.0195165 0)
(0.358319 0.0170508 0)
(0.375998 0.0148731 0)
(0.391139 0.012967 0)
(0.404105 0.0113008 0)
(0.415208 0.0098419 0)
(0.424717 0.00856069 0)
(0.432858 0.00743099 0)
(0.439825 0.00643081 0)
(0.445781 0.00554138 0)
(0.450868 0.00474543 0)
(0.455197 0.00402851 0)
(0.458909 0.00338492 0)
(0.126954 0.0183027 0)
(0.15974 0.0191594 0)
(0.199679 0.0169566 0)
(0.23445 0.0148475 0)
(0.263481 0.0130517 0)
(0.288073 0.0113138 0)
(0.308916 0.00971829 0)
(0.326526 0.00832262 0)
(0.341398 0.00711794 0)
(0.353962 0.00607898 0)
(0.36458 0.00518078 0)
(0.37355 0.0044014 0)
(0.381125 0.00372163 0)
(0.387513 0.00312593 0)
(0.392889 0.00260148 0)
(0.397401 0.00213568 0)
(0.401163 0.00171514 0)
(0.40432 0.00133866 0)
(0.0516551 0.04313 0)
(0.102084 0.0134168 0)
(0.130562 0.00905516 0)
(0.158649 0.00747136 0)
(0.182941 0.00639738 0)
(0.20311 0.00539769 0)
(0.219666 0.00449653 0)
(0.233133 0.00373202 0)
(0.244045 0.00309258 0)
(0.252864 0.00255642 0)
(0.259964 0.00210497 0)
(0.265649 0.00172303 0)
(0.270164 0.00139774 0)
(0.27371 0.00111919 0)
(0.276451 0.000879374 0)
(0.278523 0.00067181 0)
(0.280018 0.000485634 0)
(0.281053 0.000321349 0)
(0.00209169 -0.00539807 3.5784e-21)
(0.00667456 -0.00722778 -4.07555e-21)
(0.00955884 -0.0044343 0)
(0.00928875 -0.000374122 0)
(0.00600692 0.00313644 0)
(0.000520445 0.00563744 3.197e-21)
(-0.0065265 0.00732397 0)
(-0.0147101 0.00852482 0)
(-0.0237418 0.00945939 0)
(-0.0334113 0.0102184 0)
(-0.0435484 0.0108206 -1.62558e-21)
(-0.0539982 0.0112588 0)
(-0.0646076 0.0115201 0)
(-0.0752292 0.0115984 0)
(-0.0857224 0.0114976 0)
(-0.0959595 0.0112305 -9.24961e-22)
(-0.105826 0.0108161 0)
(-0.115226 0.0102771 0)
(-0.12408 0.00963784 0)
(-0.132325 0.00892212 0)
(-0.139914 0.00815295 0)
(-0.146815 0.007347 0)
(-0.153006 0.00651711 0)
(-0.158474 0.00567341 -6.1063e-22)
(-0.163213 0.00482404 6.12164e-22)
(-0.167223 0.00397377 -6.20847e-22)
(-0.170513 0.003128 -6.36439e-22)
(-0.173093 0.00229255 0)
(-0.174978 0.00147812 0)
(-0.176179 0.000697571 7.20852e-22)
(-0.176707 -3.16247e-05 7.60919e-22)
(-0.176548 -0.000684229 0)
(-0.175838 -0.00126072 0)
(-0.174592 -0.00178573 9.12103e-22)
(-0.172847 -0.00226984 0)
(-0.170634 -0.00272051 0)
(-0.167979 -0.00313963 -1.11196e-21)
(-0.164908 -0.00353063 0)
(-0.161443 -0.00389599 -1.27085e-21)
(-0.157608 -0.0042375 -2.716e-21)
(-0.153424 -0.0045554 0)
(-0.148913 -0.00485093 0)
(-0.144095 -0.00512417 0)
(-0.138993 -0.00537614 0)
(-0.133627 -0.005607 0)
(-0.128019 -0.00581763 -3.98679e-21)
(-0.122188 -0.00600832 -4.23845e-21)
(-0.116155 -0.00617971 -4.50251e-21)
(-0.109941 -0.00633207 0)
(-0.103564 -0.00646629 5.0695e-21)
(-0.0970454 -0.0065824 0)
(-0.0904023 -0.00668184 -5.69339e-21)
(-0.0836538 -0.00676782 -6.02851e-21)
(-0.0768182 -0.00683845 0)
(-0.069914 -0.00689414 0)
(-0.0629575 -0.00693547 0)
(-0.0559654 -0.00696421 -7.54247e-21)
(-0.0489536 -0.00698044 0)
(-0.0419375 -0.00698596 0)
(-0.0349309 -0.00698002 0)
(-0.0279473 -0.00696417 0)
(-0.0210006 -0.00693652 0)
(-0.0141048 -0.00689696 0)
(-0.00727907 -0.00683747 0)
(-0.000527133 -0.00674057 0)
(0.00615721 -0.00659866 1.1459e-20)
(0.0127657 -0.00643257 0)
(0.0192835 -0.00625559 0)
(0.0256989 -0.00607442 -1.11827e-20)
(0.0320026 -0.00589009 -1.10959e-20)
(0.038188 -0.00570546 0)
(0.0442495 -0.00552021 1.0928e-20)
(0.0501828 -0.00533636 -1.08465e-20)
(0.0559843 -0.00515331 0)
(0.0616517 -0.0049729 1.06892e-20)
(0.0671826 -0.00479438 0)
(0.0725761 -0.00461912 0)
(0.0778296 -0.00444659 -1.04642e-20)
(0.0829422 -0.00427808 0)
(0.0879136 -0.0041128 1.03209e-20)
(0.0927446 -0.00395169 0)
(0.0974353 -0.00379421 -1.01826e-20)
(0.101987 -0.00364125 -1.01152e-20)
(0.1064 -0.00349215 -1.00493e-20)
(0.110678 -0.00334758 -1.99684e-20)
(0.114822 -0.00320712 1.98411e-20)
(0.118834 -0.00307126 0)
(0.122714 -0.00293934 0)
(0.126464 -0.00281112 0)
(0.130083 -0.00268718 1.93538e-20)
(0.133578 -0.00256727 1.92382e-20)
(0.136954 -0.00245124 -1.91245e-20)
(0.140214 -0.0023392 0)
(0.14336 -0.00223116 1.89025e-20)
(0.146392 -0.00212701 1.87945e-20)
(0.149312 -0.00202667 1.86885e-20)
(0.152124 -0.00193005 0)
(0.154829 -0.00183707 0)
(0.157431 -0.00174764 0)
(0.159932 -0.00166163 1.82849e-20)
(0.162334 -0.001579 0)
(0.164641 -0.00149959 0)
(0.166854 -0.00142338 -1.80029e-20)
(0.168977 -0.00135012 0)
(0.171011 -0.00127982 0)
(0.172959 -0.0012122 -1.77376e-20)
(0.174821 -0.00114739 0)
(0.176601 -0.00108519 0)
(0.178301 -0.0010257 1.74897e-20)
(0.179923 -0.000968785 1.74108e-20)
(0.181468 -0.000914477 0)
(0.182941 -0.000862394 -1.72576e-20)
(0.184342 -0.000812588 0)
(0.185675 -0.000764847 1.711e-20)
(0.18694 -0.000719246 0)
(0.18814 -0.000675568 1.69682e-20)
(0.189277 -0.000633843 1.68994e-20)
(0.190352 -0.000593872 0)
(0.191367 -0.000555691 0)
(0.192324 -0.000519187 0)
(0.193225 -0.000484359 0)
(0.194072 -0.000451053 0)
(0.194866 -0.000419301 0)
(0.195609 -0.000388939 0)
(0.196302 -0.000360033 1.63966e-20)
(0.196946 -0.000332428 -1.6339e-20)
(0.197544 -0.000306149 0)
(0.198096 -0.000281037 0)
(0.198604 -0.000257148 0)
(0.19907 -0.000234318 0)
(0.199494 -0.000212555 -3.21344e-20)
(0.199878 -0.000191617 0)
(0.200222 -0.000171406 3.19309e-20)
(0.200529 -0.000151046 -3.18321e-20)
(0.200793 -0.000130342 0)
(0.201016 -0.000110649 0)
(0.201203 -9.30411e-05 0)
(0.201355 -7.72775e-05 3.14458e-20)
(0.201475 -6.30547e-05 3.13531e-20)
(0.201565 -5.00094e-05 0)
(0.201627 -3.79023e-05 3.11706e-20)
(0.201663 -2.66132e-05 3.10803e-20)
(0.201674 -1.60633e-05 -3.09907e-20)
(0.20166 -6.1473e-06 0)
(0.201623 3.22659e-06 0)
(0.201564 1.21512e-05 -3.07259e-20)
(0.201482 2.06636e-05 0)
(0.201378 2.87891e-05 0)
(0.201254 3.65221e-05 0)
(0.201109 4.38653e-05 0)
(0.200944 5.08373e-05 3.02977e-20)
(0.200759 5.74757e-05 3.0214e-20)
(0.200556 6.38064e-05 0)
(0.200334 6.98527e-05 3.00482e-20)
(0.200094 7.56296e-05 0)
(0.199836 8.11672e-05 0)
(0.19956 8.6489e-05 2.98033e-20)
(0.199268 9.16531e-05 0)
(0.198958 9.67383e-05 2.96424e-20)
(0.19863 0.000101837 0)
(0.198284 0.00010702 0)
(0.19792 0.000112391 2.94059e-20)
(0.197536 0.000118139 0)
(0.19713 0.000124548 2.92532e-20)
(0.1967 0.000131677 0)
(0.196243 0.000139699 0)
(0.195754 0.000149393 0)
(0.195228 0.000161658 -2.89723e-20)
(0.194654 0.000176958 0)
(0.194021 0.000196067 2.88593e-20)
(0.193309 0.000220784 0)
(0.1925 0.000253197 0)
(0.191543 0.000301648 0)
(0.190405 0.000372285 0)
(0.188981 0.000469985 0)
(0.187131 0.000627187 0)
(0.184694 0.000886729 0)
(0.180752 0.0013408 -5.90019e-20)
(0.176418 0.00210806 0)
(0.161909 0.00372293 0)
(0.00102906 -0.0124268 -1.03496e-20)
(0.00040991 -0.00925481 7.83786e-21)
(-0.0032813 0.000481657 0)
(-0.00903568 0.00967998 -2.43033e-21)
(-0.0164022 0.0170607 0)
(-0.0250187 0.0224805 -8.74896e-22)
(-0.0345706 0.0262572 1.63582e-21)
(-0.0447662 0.0288049 1.48984e-21)
(-0.0553256 0.0304605 0)
(-0.0660078 0.0314429 1.24407e-21)
(-0.0766132 0.0318769 5.43188e-22)
(-0.0869796 0.0318329 0)
(-0.0969788 0.0313651 0)
(-0.106513 0.0305239 0)
(-0.11551 0.0293605 0)
(-0.123916 0.0279278 3.58081e-22)
(-0.131696 0.0262788 0)
(-0.138827 0.0244644 -6.47445e-22)
(-0.145297 0.022532 0)
(-0.151105 0.0205232 0)
(-0.156251 0.0184744 5.49874e-22)
(-0.160746 0.0164154 0)
(-0.1646 0.0143705 -5.1696e-22)
(-0.167828 0.0123583 2.51302e-22)
(-0.170449 0.0103935 -2.51821e-22)
(-0.17248 0.00848565 2.55054e-22)
(-0.173943 0.00664186 2.60927e-22)
(-0.174859 0.00486592 0)
(-0.175255 0.00316248 0)
(-0.175159 0.00153764 -2.92777e-22)
(-0.174598 3.68407e-06 2.92112e-22)
(-0.173615 -0.00142232 0)
(-0.172177 -0.00273786 0)
(-0.170291 -0.00395743 -3.64115e-22)
(-0.167968 -0.00509056 0)
(-0.165221 -0.00614535 0)
(-0.162068 -0.00712666 4.37048e-22)
(-0.158526 -0.008039 0)
(-0.154614 -0.00888492 -4.52781e-22)
(-0.150352 -0.00966712 1.04741e-21)
(-0.145757 -0.0103871 0)
(-0.140851 -0.0110468 0)
(-0.135651 -0.0116475 2.38545e-21)
(-0.130178 -0.012191 2.52168e-21)
(-0.12445 -0.0126785 2.66279e-21)
(-0.118487 -0.0131117 -1.34465e-21)
(-0.112308 -0.0134922 1.54148e-21)
(-0.105932 -0.0138218 4.73509e-21)
(-0.0993772 -0.0141021 -3.27323e-21)
(-0.0926621 -0.0143356 -1.78635e-21)
(-0.085805 -0.0145245 0)
(-0.078823 -0.0146698 1.95949e-21)
(-0.0717336 -0.0147738 -1.90303e-21)
(-0.0645547 -0.0148383 0)
(-0.0573027 -0.0148658 0)
(-0.049993 -0.0148581 0)
(-0.0426414 -0.0148181 2.42456e-21)
(-0.0352628 -0.0147476 0)
(-0.0278713 -0.0146494 -5.08708e-21)
(-0.0204803 -0.0145252 0)
(-0.0131023 -0.0143776 -5.49475e-21)
(-0.00574994 -0.0142076 0)
(0.00156941 -0.0140164 5.86157e-21)
(0.00884947 -0.013803 0)
(0.016077 -0.0135659 -6.05959e-21)
(0.0232316 -0.0133016 3.001e-21)
(0.0302988 -0.0130153 0)
(0.0372755 -0.0127125 6.33145e-21)
(0.044158 -0.0123985 3.27891e-21)
(0.0509408 -0.0120756 3.31791e-21)
(0.0576185 -0.0117471 0)
(0.0641861 -0.0114143 3.25912e-21)
(0.0706395 -0.0110796 3.42518e-21)
(0.076975 -0.0107437 0)
(0.0831895 -0.0104088 -3.48881e-21)
(0.0892808 -0.0100752 6.9188e-21)
(0.0952467 -0.00974468 0)
(0.101085 -0.00941743 3.57292e-21)
(0.106795 -0.00909489 0)
(0.112375 -0.00877704 -1.07615e-20)
(0.117825 -0.00846507 0)
(0.123146 -0.00815886 1.08989e-20)
(0.128336 -0.00785938 3.68521e-21)
(0.133398 -0.00756643 -3.61324e-21)
(0.138333 -0.00728083 -7.26774e-21)
(0.14314 -0.0070023 7.30661e-21)
(0.147822 -0.0067313 0)
(0.152379 -0.0064672 0)
(0.156811 -0.00621 0)
(0.16112 -0.00595999 -2.26093e-20)
(0.165309 -0.00571755 -7.60748e-21)
(0.169382 -0.00548276 7.6283e-21)
(0.173341 -0.00525529 0)
(0.177188 -0.00503497 7.54035e-21)
(0.180922 -0.00482162 -7.68054e-21)
(0.184547 -0.00461523 -7.69484e-21)
(0.188064 -0.00441564 0)
(0.191475 -0.00422282 0)
(0.194783 -0.00403655 0)
(0.197988 -0.00385674 -7.73836e-21)
(0.201094 -0.00368322 0)
(0.204103 -0.00351581 1.54157e-20)
(0.207016 -0.00335438 2.31888e-20)
(0.209835 -0.00319866 -1.54431e-20)
(0.212562 -0.00304854 0)
(0.2152 -0.00290383 -7.69326e-21)
(0.217749 -0.00276452 0)
(0.220211 -0.00263032 -1.54752e-20)
(0.222589 -0.0025012 7.70632e-21)
(0.224884 -0.00237698 7.70905e-21)
(0.227098 -0.00225753 0)
(0.229233 -0.00214265 2.32524e-20)
(0.23129 -0.00203235 -1.54797e-20)
(0.233272 -0.00192631 -7.76456e-21)
(0.235179 -0.00182441 0)
(0.237014 -0.00172639 -7.75642e-21)
(0.238779 -0.00163216 -2.32081e-20)
(0.240474 -0.00154156 0)
(0.242102 -0.00145451 -1.54382e-20)
(0.243664 -0.0013709 -1.54274e-20)
(0.245163 -0.00129066 -1.54157e-20)
(0.246599 -0.00121365 0)
(0.247975 -0.00113981 0)
(0.249291 -0.00106897 0)
(0.25055 -0.00100111 7.66396e-21)
(0.251752 -0.000936058 7.68698e-21)
(0.252898 -0.000873751 0)
(0.253991 -0.00081404 1.53094e-20)
(0.255032 -0.000756901 1.52915e-20)
(0.256022 -0.000702142 0)
(0.256962 -0.0006497 1.52778e-20)
(0.257854 -0.000599366 3.047e-20)
(0.258699 -0.000551023 -1.52362e-20)
(0.259498 -0.000503831 -1.51746e-20)
(0.260257 -0.000457587 0)
(0.260976 -0.000413449 0)
(0.261655 -0.000372283 0)
(0.262293 -0.000333986 -1.51239e-20)
(0.262891 -0.000298231 1.50694e-20)
(0.263451 -0.000264666 3.01202e-20)
(0.263972 -0.00023313 -1.50476e-20)
(0.264458 -0.000203495 1.49941e-20)
(0.264909 -0.000175496 1.49915e-20)
(0.265326 -0.00014894 0)
(0.265711 -0.000123664 0)
(0.266065 -9.95826e-05 -1.48834e-20)
(0.266388 -7.65994e-05 0)
(0.266682 -5.46802e-05 0)
(0.266948 -3.37747e-05 2.96081e-20)
(0.267185 -1.38376e-05 0)
(0.267396 5.21666e-06 1.47357e-20)
(0.267581 2.34222e-05 -1.47192e-20)
(0.26774 4.08249e-05 0)
(0.267874 5.74567e-05 1.46437e-20)
(0.267984 7.33851e-05 0)
(0.26807 8.86829e-05 0)
(0.268133 0.000103468 -1.4559e-20)
(0.268173 0.000117843 2.90435e-20)
(0.268191 0.000131962 -1.44934e-20)
(0.268186 0.000146005 0)
(0.268158 0.000160222 0)
(0.268107 0.00017485 1.43875e-20)
(0.268031 0.000190186 0)
(0.267931 0.000206663 1.43229e-20)
(0.267803 0.000225181 0)
(0.267646 0.000246205 0)
(0.267455 0.000270638 0)
(0.267225 0.000300191 1.42017e-20)
(0.266948 0.000337433 0)
(0.266616 0.000384842 -1.4148e-20)
(0.266212 0.000446433 0)
(0.265718 0.000528139 0)
(0.265106 0.000638423 2.82027e-20)
(0.264328 0.000792905 -2.81986e-20)
(0.26333 0.00102272 0)
(0.261991 0.00137019 0)
(0.260251 0.00193058 0)
(0.257573 0.00282645 8.58575e-20)
(0.254717 0.00451592 0)
(0.247014 0.00760723 -5.97564e-20)
(-0.00148072 -0.00848514 -3.93191e-22)
(-0.00800838 0.00312326 -7.12344e-21)
(-0.0153359 0.015759 0)
(-0.0234357 0.0261869 2.6794e-21)
(-0.0319811 0.034462 0)
(-0.0407175 0.0407154 0)
(-0.0496071 0.0451645 1.59461e-23)
(-0.058605 0.0480792 -7.91737e-22)
(-0.0676103 0.0497304 -7.45754e-22)
(-0.0764998 0.050354 -6.79442e-22)
(-0.0851551 0.0501379 0)
(-0.0934825 0.0492297 0)
(-0.101415 0.0477477 5.49599e-22)
(-0.108905 0.0457943 1.01935e-21)
(-0.115922 0.0434609 -9.46783e-22)
(-0.122445 0.0408304 0)
(-0.128463 0.0379773 -8.23556e-22)
(-0.133971 0.0349679 3.82072e-22)
(-0.138965 0.0318602 0)
(-0.143445 0.0287036 -6.93088e-22)
(-0.147413 0.0255393 -3.29274e-22)
(-0.150871 0.0224007 6.41143e-22)
(-0.153823 0.0193146 3.1164e-22)
(-0.156274 0.0163018 0)
(-0.158231 0.0133782 -6.12318e-22)
(-0.159701 0.0105557 -6.14934e-22)
(-0.160694 0.00784331 0)
(-0.161221 0.00524775 -6.37178e-22)
(-0.161291 0.0027747 0)
(-0.160915 0.000428585 -6.80641e-22)
(-0.160103 -0.00178802 -3.64457e-22)
(-0.158861 -0.00387946 0)
(-0.157194 -0.00585088 0)
(-0.155112 -0.007705 0)
(-0.152626 -0.0094448 0)
(-0.149749 -0.0110736 0)
(-0.146496 -0.0125943 0)
(-0.142881 -0.0140099 -1.02707e-21)
(-0.13892 -0.015323 1.65418e-21)
(-0.134631 -0.0165361 0)
(-0.13003 -0.0176514 0)
(-0.125134 -0.0186712 0)
(-0.11996 -0.0195975 -6.03209e-23)
(-0.114527 -0.0204327 -1.49225e-21)
(-0.108852 -0.0211791 -3.07616e-21)
(-0.102952 -0.0218391 3.23541e-21)
(-0.0968449 -0.022415 1.66373e-21)
(-0.0905487 -0.0229098 -1.81989e-21)
(-0.0840805 -0.0233261 7.60696e-23)
(-0.0774573 -0.0236671 -1.91643e-21)
(-0.0706962 -0.0239365 0)
(-0.0638139 -0.0241368 -2.09334e-21)
(-0.0568264 -0.0242709 8.39281e-23)
(-0.0497498 -0.0243423 0)
(-0.0425997 -0.0243544 0)
(-0.0353909 -0.0243107 2.46426e-21)
(-0.0281379 -0.0242148 0)
(-0.020855 -0.0240703 0)
(-0.0135553 -0.0238812 -2.66275e-21)
(-0.00625159 -0.023651 -5.70553e-21)
(0.00104489 -0.0233835 3.03081e-21)
(0.00832236 -0.0230813 0)
(0.0155686 -0.0227472 -3.16731e-21)
(0.022773 -0.0223821 0)
(0.0299251 -0.0219897 -3.11671e-21)
(0.0370141 -0.021573 -3.35925e-21)
(0.0440307 -0.0211345 6.66495e-21)
(0.0509683 -0.0206765 3.30713e-21)
(0.057821 -0.0202025 0)
(0.0645829 -0.0197153 -7.01972e-21)
(0.0712486 -0.0192182 0)
(0.0778134 -0.0187136 -1.09401e-20)
(0.0842731 -0.0182043 -7.346e-21)
(0.0906238 -0.017692 -7.44821e-21)
(0.0968626 -0.0171792 7.54712e-21)
(0.102987 -0.0166673 -1.15361e-20)
(0.108994 -0.0161583 0)
(0.114882 -0.0156532 0)
(0.12065 -0.0151536 7.90971e-21)
(0.126297 -0.0146602 1.20528e-20)
(0.131822 -0.0141742 0)
(0.137225 -0.0136963 -4.13461e-21)
(0.142505 -0.0132273 0)
(0.147663 -0.0127675 1.24931e-20)
(0.152701 -0.0123177 1.10668e-22)
(0.157617 -0.0118781 -1.07139e-22)
(0.162414 -0.0114489 -8.48289e-21)
(0.167091 -0.0110299 0)
(0.17165 -0.0106213 8.5969e-21)
(0.176091 -0.0102233 9.3622e-23)
(0.180417 -0.0098362 0)
(0.184632 -0.00946005 0)
(0.188736 -0.00909475 0)
(0.19273 -0.00874011 -8.91778e-21)
(0.196616 -0.00839598 0)
(0.200396 -0.00806224 0)
(0.204071 -0.00773875 0)
(0.207642 -0.00742536 0)
(0.211113 -0.00712188 0)
(0.214483 -0.00682814 -9.04757e-21)
(0.217757 -0.00654391 0)
(0.220934 -0.00626897 -9.16233e-21)
(0.224017 -0.00600306 -9.1845e-21)
(0.227008 -0.00574597 9.205e-21)
(0.229908 -0.00549745 0)
(0.232719 -0.00525734 9.24132e-21)
(0.235442 -0.00502548 0)
(0.238079 -0.00480167 9.27196e-21)
(0.240632 -0.00458567 -9.28531e-21)
(0.243102 -0.00437729 -2.7804e-20)
(0.245492 -0.00417626 0)
(0.247802 -0.00398235 -2.78716e-20)
(0.250035 -0.00379536 -9.248e-21)
(0.252192 -0.00361509 0)
(0.254274 -0.00344132 -1.86059e-20)
(0.256283 -0.00327384 -1.86185e-20)
(0.258221 -0.00311244 2.79761e-20)
(0.260089 -0.00295696 0)
(0.261889 -0.00280723 9.35169e-21)
(0.263622 -0.00266305 9.35247e-21)
(0.265291 -0.00252429 2.80019e-20)
(0.266896 -0.00239078 0)
(0.268439 -0.00226239 0)
(0.269922 -0.00213896 0)
(0.271346 -0.00202036 9.29685e-21)
(0.272711 -0.00190641 0)
(0.27402 -0.00179695 0)
(0.275275 -0.00169186 -9.32701e-21)
(0.276475 -0.00159103 -9.32052e-21)
(0.277624 -0.00149425 0)
(0.278721 -0.00140135 0)
(0.279769 -0.00131216 -1.85957e-20)
(0.280769 -0.0012265 0)
(0.281723 -0.00114425 1.85594e-20)
(0.282632 -0.00106531 1.85116e-20)
(0.283498 -0.00098963 0)
(0.284323 -0.000917449 0)
(0.285106 -0.000848898 -1.84507e-20)
(0.285848 -0.000783839 -2.28252e-23)
(0.286551 -0.000722027 -2.15928e-23)
(0.287215 -0.000663346 0)
(0.287842 -0.000607672 -3.67136e-20)
(0.288433 -0.000554771 0)
(0.288988 -0.000504438 0)
(0.289509 -0.000456468 0)
(0.289998 -0.000410708 1.82296e-20)
(0.290454 -0.00036702 0)
(0.290879 -0.000325314 -3.62839e-20)
(0.291275 -0.000285509 -1.81177e-20)
(0.291641 -0.000247513 0)
(0.291978 -0.000211201 -1.80404e-20)
(0.292289 -0.000176486 0)
(0.292572 -0.000143279 0)
(0.29283 -0.000111495 -5.37417e-20)
(0.293062 -8.10224e-05 3.57401e-20)
(0.29327 -5.17325e-05 0)
(0.293453 -2.34579e-05 3.55736e-20)
(0.293613 3.98963e-06 -1.77514e-20)
(0.293749 3.08493e-05 0)
(0.293861 5.73953e-05 0)
(0.29395 8.39679e-05 0)
(0.294015 0.000110974 -5.27135e-20)
(0.294055 0.000138933 0)
(0.29407 0.000168591 -1.74849e-20)
(0.294057 0.000200842 0)
(0.294015 0.000236779 0)
(0.293939 0.000278084 0)
(0.293826 0.000327066 0)
(0.293668 0.000386679 0)
(0.293457 0.000460914 0)
(0.29318 0.000556054 -3.43842e-20)
(0.292819 0.000680799 0)
(0.292352 0.000849059 -1.71452e-20)
(0.291738 0.00108144 5.13993e-20)
(0.290937 0.00141419 0)
(0.289858 0.00190699 0)
(0.288462 0.00267118 -3.43843e-20)
(0.286442 0.00385976 -3.46236e-20)
(0.284328 0.00593736 3.50669e-20)
(0.279907 0.00945608 3.59472e-20)
(-0.00337072 0.00373649 1.90434e-20)
(-0.012595 0.0215317 8.73317e-21)
(-0.0212234 0.0346932 3.03444e-21)