/*--------------------------------*- C++ -*----------------------------------*\
  =========                 |
  \\      /  F ield         | OpenFOAM: The Open Source CFD Toolbox
   \\    /   O peration     | Website:  https://openfoam.org
    \\  /    A nd           | Version:  6
     \\/     M anipulation  |
\*---------------------------------------------------------------------------*/
FoamFile
{
    version     2.0;
    format      ascii;
    class       volScalarField;
    location    "235";
    object      epsilon;
}
// * * * * * * * * * * * * * * * * * * * * * * * * * * * * * * * * * * * * * //

dimensions      [0 2 -3 0 0 0 0];

internalField   nonuniform List<scalar> 
12225
(
174.878
63.4705
46.9048
39.4643
34.6919
31.1898
28.4543
26.2376
24.3971
22.8428
21.5139
20.3682
19.3761
18.518
17.7831
17.1859
16.7412
17.0026
53.9974
29.7429
21.6437
18.0727
15.8606
14.2788
13.065
12.0943
11.2964
10.6279
10.0597
9.57132
9.14785
8.77799
8.45007
8.15865
7.85278
7.58989
30.0326
21.7414
16.4528
13.7494
12.0324
10.7998
9.85292
9.09514
8.47178
7.94883
7.5035
7.11968
6.78526
6.49067
6.22602
5.98358
5.73266
5.49945
21.695
18.1471
14.3985
12.1422
10.6338
9.53088
8.67646
7.98916
7.42177
6.94442
6.53686
6.18463
5.87677
5.60448
5.35921
5.13349
4.91062
4.70039
17.935
16.0981
13.3182
11.3783
10.001
8.96682
8.15487
7.49655
6.95028
6.489
6.09404
5.75187
5.45215
5.18655
4.94749
4.72826
4.51942
4.32396
16.0223
14.8136
12.6659
10.9772
9.70287
8.71587
7.92761
7.28186
6.74245
6.28489
5.8918
5.55039
5.25081
4.98508
4.74631
4.52864
4.32613
4.13912
15.0041
13.9742
12.244
10.7601
9.57581
8.62812
7.8559
7.21583
6.67704
6.21757
5.82135
5.47626
5.1728
4.90343
4.66183
4.4428
4.2421
4.05882
14.4742
13.4057
11.9633
10.6451
9.54129
8.62901
7.87126
7.23491
6.69448
6.23072
5.82899
5.47798
5.16876
4.8941
4.64809
4.42602
4.22434
4.04146
14.1918
13.0516
11.7787
10.5889
9.55631
8.6794
7.93665
7.30439
6.76224
6.29377
5.88592
5.52827
5.21245
4.93165
4.68033
4.45412
4.24972
4.06504
14.05
12.8372
11.6605
10.5663
9.59563
8.75312
8.02683
7.40034
6.85783
6.38561
5.97223
5.6083
5.28606
4.99915
4.74237
4.51159
4.30356
4.11583
13.9866
12.7133
11.5873
10.561
9.6421
8.83227
8.12386
7.50537
6.96468
6.49055
6.07315
5.70412
5.37638
5.08403
4.8222
4.58693
4.37498
4.18366
13.9668
12.6517
11.5466
10.5618
9.68086
8.89832
8.207
7.59785
7.06112
6.58743
6.16827
5.7962
5.46477
5.16853
4.90289
4.66401
4.44869
4.25414
13.9644
12.6184
11.52
10.5622
9.71075
8.9522
8.27773
7.67918
7.14825
6.67693
6.25788
5.88445
5.55081
5.25191
4.98342
4.74169
4.52355
4.32616
13.9728
12.603
11.5005
10.5585
9.72982
8.99372
8.33744
7.75189
7.22951
6.76326
6.34676
5.97407
5.63996
5.3398
5.06958
4.82581
4.60542
4.40564
13.9872
12.6013
11.4861
10.5477
9.73291
9.0138
8.37416
7.80299
7.29188
6.83387
6.42295
6.05381
5.72172
5.42247
5.15235
4.90807
4.68668
4.48553
14.0026
12.6085
11.4765
10.5306
9.71882
9.0095
8.38234
7.82375
7.32417
6.87621
6.47354
6.11089
5.78374
5.48809
5.22042
4.97765
4.75706
4.55613
14.0155
12.6194
11.4723
10.5133
9.6957
8.98759
8.36665
7.81703
7.32724
6.88866
6.49456
6.13943
5.81863
5.52821
5.26473
5.02521
4.80705
4.60789
14.0231
12.6284
11.4732
10.5046
9.68038
8.96967
8.3498
7.80388
7.31934
6.88664
6.49843
6.14879
5.83287
5.54662
5.28661
5.04991
4.83397
4.63654
14.022
12.6285
11.4764
10.5111
9.68959
8.98055
8.36143
7.81557
7.33065
6.89733
6.50833
6.15781
5.84101
5.55392
5.29311
5.05566
4.83902
4.64098
14.0083
12.6145
11.4781
10.5296
9.71856
9.01275
8.39085
7.83818
7.34427
6.90126
6.50289
6.14382
5.81948
5.52588
5.25958
5.01757
4.7972
4.59619
13.9893
12.6053
11.4903
10.5535
9.74123
9.025
8.38822
7.81993
7.3114
6.85558
6.44638
6.07846
5.74715
5.44824
5.17803
4.93329
4.71117
4.50921
13.9698
12.6132
11.5155
10.5701
9.73374
8.98983
8.3272
7.7369
7.21108
6.7426
6.32474
5.9514
5.61715
5.31722
5.04743
4.80409
4.58407
4.38469
13.9737
12.6735
11.5702
10.5792
9.69076
8.90162
8.20512
7.59204
7.05262
6.57718
6.157
5.7845
5.45318
5.15748
4.89268
4.65479
4.44039
4.24665
14.061
12.8582
11.6927
10.6023
9.63061
8.78509
8.05472
7.42379
6.87698
6.40081
5.98402
5.61734
5.29317
5.00525
4.74844
4.51843
4.31168
4.12521
14.3703
13.2946
11.9468
10.6834
9.60196
8.69419
7.93261
7.28876
6.7394
6.26649
5.8561
5.49739
5.18182
4.9026
4.65428
4.43239
4.23327
4.0539
15.1981
14.2
12.4276
10.9001
9.68284
8.71127
7.92031
7.26463
6.71275
6.24218
5.83656
5.48375
5.17449
4.90157
4.65924
4.443
4.24914
4.07463
17.3202
15.8404
13.298
11.4061
10.0253
8.97621
8.14684
7.47105
6.90806
6.43122
6.02208
5.66734
5.35709
5.08374
4.8414
4.62536
4.43174
4.25751
22.705
18.9712
15.0015
12.602
11.0006
9.83239
8.92701
8.19726
7.59332
7.08391
6.64801
6.27073
5.94117
5.65103
5.39391
5.16479
4.95937
4.7748
39.1258
26.0251
19.2644
15.9956
13.9532
12.4934
11.3695
10.4659
9.71899
9.0894
8.5508
8.08467
7.67744
7.31886
7.00098
6.71773
6.4632
6.23596
119.754
53.3333
39.1368
32.7665
28.7559
25.8259
23.5264
21.6507
20.0821
18.7471
17.5957
16.5923
15.7104
14.9299
14.2347
13.6128
13.0509
12.5536
0.00283222
0.00472469
0.00969035
0.0144294
0.0185165
0.0221913
0.0259387
0.0297194
0.0336516
0.0378428
0.042359
0.0472484
0.0525699
0.0584039
0.0648448
0.071995
0.0799491
0.0887878
0.0985666
0.109322
0.121073
0.133827
0.147552
0.162209
0.177747
0.19412
0.21125
0.229017
0.24735
0.266183
0.28544
0.305063
0.324981
0.345142
0.365479
0.385946
0.406474
0.427019
0.447513
0.467911
0.488143
0.508163
0.527904
0.547327
0.566385
0.585088
0.603489
0.621766
0.639341
0.656429
0.672924
0.688835
0.70411
0.718737
0.732672
0.745901
0.758388
0.77012
0.781069
0.791227
0.800571
0.809099
0.816797
0.823667
0.829703
0.834913
0.839297
0.842864
0.845604
0.847378
0.848557
0.848939
0.84855
0.847412
0.845548
0.84298
0.839735
0.835835
0.831311
0.826184
0.82049
0.814249
0.8075
0.800264
0.79258
0.784467
0.775967
0.767094
0.757873
0.748337
0.738559
0.728547
0.718281
0.707798
0.697132
0.686311
0.675362
0.664309
0.653176
0.641985
0.630756
0.61951
0.608266
0.597041
0.585855
0.57472
0.563656
0.552672
0.541785
0.531003
0.52034
0.509803
0.499404
0.48915
0.479051
0.46911
0.459342
0.449749
0.440331
0.431086
0.422026
0.413155
0.404476
0.395986
0.387688
0.379578
0.371659
0.363927
0.356384
0.349025
0.341851
0.334855
0.328039
0.321399
0.314933
0.308638
0.302518
0.296567
0.290782
0.285157
0.279687
0.274367
0.269192
0.26416
0.259259
0.254523
0.249914
0.245427
0.241062
0.23682
0.232696
0.228688
0.224791
0.221002
0.217316
0.213731
0.210245
0.206856
0.203559
0.200352
0.197231
0.194192
0.191233
0.188352
0.185544
0.182806
0.180135
0.177525
0.174972
0.172471
0.170013
0.167589
0.165195
0.162794
0.160415
0.157923
0.155482
0.152669
0.150118
0.137033
0.017671
0.010502
0.0107167
0.012459
0.0148848
0.0177602
0.0210682
0.0247764
0.0288653
0.0333163
0.0381097
0.043229
0.0486643
0.054412
0.0604676
0.0668227
0.0734625
0.0803682
0.0875212
0.0949119
0.102516
0.110247
0.11807
0.125962
0.133906
0.141893
0.149913
0.157958
0.166029
0.174129
0.182256
0.190412
0.198596
0.206804
0.215031
0.22327
0.23151
0.239741
0.247948
0.256117
0.264231
0.272278
0.280242
0.288118
0.295905
0.303623
0.311336
0.319165
0.3268
0.334226
0.341415
0.34835
0.355012
0.361385
0.367449
0.373193
0.378599
0.383658
0.388358
0.392689
0.396643
0.400215
0.4034
0.406195
0.408599
0.410613
0.412235
0.413468
0.414304
0.414746
0.41482
0.414536
0.413907
0.412932
0.411621
0.409987
0.40804
0.405795
0.403265
0.400464
0.397407
0.394108
0.390583
0.386846
0.382912
0.378795
0.37451
0.370072
0.365495
0.360797
0.355994
0.351095
0.346104
0.341036
0.335903
0.330716
0.325488
0.320231
0.314955
0.309669
0.304385
0.29911
0.293853
0.288623
0.283427
0.278273
0.273166
0.268113
0.26312
0.25819
0.25333
0.248543
0.243834
0.239204
0.234658
0.230197
0.225826
0.221545
0.217357
0.213264
0.209266
0.205365
0.20156
0.197852
0.19424
0.190724
0.187302
0.183975
0.180741
0.177599
0.174549
0.171589
0.168716
0.165931
0.16323
0.160612
0.158077
0.155624
0.15325
0.150954
0.148732
0.146584
0.144506
0.142497
0.140551
0.138687
0.136889
0.135152
0.133473
0.131851
0.130283
0.128768
0.127303
0.125888
0.12452
0.123197
0.121919
0.120684
0.11949
0.118337
0.117223
0.116146
0.115105
0.1141
0.113129
0.112191
0.111287
0.110415
0.109574
0.108766
0.107991
0.107249
0.106547
0.105886
0.105282
0.104763
0.104331
0.104167
0.10437
0.105042
0.0425167
0.0216682
0.0189699
0.0197962
0.0218634
0.0246874
0.0281268
0.0320904
0.0364855
0.041212
0.0461743
0.0512944
0.0565177
0.061811
0.0671561
0.0725436
0.0779674
0.0834225
0.0889015
0.0943915
0.0998533
0.10537
0.110943
0.116578
0.122282
0.128059
0.133913
0.139847
0.145861
0.151958
0.158133
0.164386
0.17071
0.177099
0.183545
0.19004
0.196571
0.203129
0.2097
0.216272
0.222832
0.22937
0.235872
0.242331
0.248738
0.255095
0.261395
0.267611
0.273688
0.279596
0.285316
0.290829
0.296118
0.301166
0.305959
0.310484
0.314727
0.318677
0.322326
0.325664
0.328684
0.331383
0.333755
0.335798
0.337512
0.338897
0.339955
0.340688
0.341067
0.34114
0.3409
0.340368
0.339545
0.338438
0.337057
0.33541
0.33351
0.331369
0.328997
0.326408
0.323614
0.320628
0.317466
0.314138
0.310655
0.30703
0.303277
0.299406
0.29543
0.291363
0.287215
0.282997
0.27872
0.27439
0.270018
0.265613
0.261184
0.25674
0.252289
0.247838
0.243396
0.238969
0.234565
0.230188
0.225845
0.221541
0.217281
0.21307
0.208911
0.204809
0.200766
0.196787
0.192873
0.189027
0.185251
0.181546
0.177915
0.174357
0.170876
0.167471
0.164144
0.160894
0.157723
0.154631
0.151616
0.148679
0.145819
0.143035
0.140328
0.137695
0.135139
0.132657
0.130246
0.127906
0.125635
0.123432
0.121297
0.119227
0.117222
0.115281
0.113402
0.111583
0.109822
0.108119
0.106469
0.104876
0.103336
0.101848
0.100409
0.0990184
0.0976738
0.0963744
0.0951191
0.0939061
0.092734
0.0916016
0.0905076
0.0894511
0.0884308
0.0874459
0.0864952
0.0855779
0.084693
0.0838399
0.0830181
0.0822271
0.0814668
0.080737
0.0800383
0.0793715
0.0787385
0.0781418
0.0775867
0.0770815
0.0766337
0.0762953
0.0759945
0.0760289
0.0763703
0.0778557
0.0743368
0.0347893
0.0286422
0.0284068
0.0300975
0.0327797
0.0361389
0.0400103
0.0442596
0.04876
0.0533985
0.0580871
0.0627685
0.0674152
0.0720219
0.0765979
0.0811596
0.0857256
0.0903138
0.0949409
0.0996462
0.104405
0.109255
0.11421
0.119275
0.124451
0.129742
0.135147
0.140666
0.146297
0.152035
0.157877
0.163814
0.169841
0.175948
0.182125
0.188361
0.194644
0.20096
0.207298
0.213643
0.219981
0.2263
0.232587
0.238829
0.24501
0.251104
0.257085
0.262925
0.2686
0.274089
0.279373
0.284433
0.289254
0.293819
0.298116
0.302131
0.305853
0.309272
0.31238
0.315171
0.317639
0.319781
0.321596
0.323082
0.324241
0.325076
0.325569
0.325737
0.325601
0.325164
0.324433
0.323416
0.322122
0.320561
0.318745
0.316685
0.314392
0.311879
0.30916
0.306245
0.303148
0.299876
0.296445
0.29287
0.289165
0.285342
0.281414
0.277393
0.273291
0.269118
0.264887
0.260606
0.256285
0.251932
0.247558
0.243169
0.238774
0.234381
0.229998
0.22563
0.221285
0.216968
0.212684
0.20844
0.204239
0.200086
0.195985
0.191939
0.187952
0.184026
0.180166
0.176372
0.172645
0.168988
0.165401
0.161887
0.158446
0.155078
0.151785
0.148566
0.145423
0.142354
0.13936
0.136442
0.133597
0.130826
0.128128
0.125502
0.122947
0.120463
0.118049
0.115702
0.113423
0.111209
0.109059
0.106973
0.104949
0.102986
0.101084
0.0992411
0.097455
0.0957239
0.0940467
0.0924215
0.0908477
0.0893243
0.0878498
0.0864223
0.0850404
0.0837027
0.0824081
0.0811553
0.079943
0.0787701
0.0776352
0.0765375
0.0754758
0.0744491
0.0734566
0.0724972
0.0715701
0.0706746
0.06981
0.0689759
0.0681719
0.0673978
0.0666537
0.0659401
0.0652578
0.0646086
0.0639952
0.0634218
0.0628968
0.0624268
0.062048
0.0617499
0.0616517
0.0618495
0.0629042
0.108525
0.0483787
0.0382813
0.0367769
0.0377923
0.0400146
0.0429605
0.0464003
0.0501792
0.054172
0.058277
0.0624199
0.066556
0.0706678
0.0747585
0.0788445
0.0829483
0.0870943
0.0913053
0.0956025
0.100005
0.104538
0.109195
0.113982
0.118908
0.123979
0.129196
0.13456
0.140068
0.145718
0.151503
0.15742
0.163459
0.169612
0.175868
0.182214
0.188639
0.19513
0.201674
0.208255
0.214857
0.221462
0.228052
0.234609
0.24111
0.247532
0.25385
0.26004
0.266076
0.271935
0.277595
0.283034
0.288234
0.293176
0.297844
0.302223
0.3063
0.310062
0.3135
0.316605
0.319371
0.321792
0.323867
0.325592
0.32697
0.328002
0.328686
0.329005
0.329006
0.328682
0.328042
0.327094
0.325849
0.324317
0.322511
0.320442
0.318124
0.315569
0.312791
0.309804
0.306621
0.303257
0.299727
0.296042
0.292217
0.288264
0.284198
0.280031
0.275776
0.271446
0.26705
0.262601
0.25811
0.253584
0.249035
0.24447
0.239899
0.23533
0.230769
0.226225
0.221704
0.217212
0.212756
0.20834
0.203969
0.199648
0.195381
0.191172
0.187024
0.182939
0.178919
0.174965
0.171082
0.16727
0.163533
0.15987
0.156284
0.152774
0.149341
0.145986
0.142708
0.139508
0.136386
0.13334
0.130371
0.127478
0.12466
0.121917
0.119247
0.116649
0.114123
0.111666
0.109279
0.106959
0.104705
0.102516
0.10039
0.0983273
0.0963254
0.0943835
0.0925002
0.0906738
0.0889029
0.0871859
0.0855211
0.0839076
0.0823449
0.080831
0.0793642
0.077943
0.0765661
0.0752324
0.0739407
0.0726898
0.0714782
0.070305
0.069169
0.0680693
0.0670048
0.0659745
0.0649776
0.0640131
0.0630803
0.0621786
0.0613075
0.0604664
0.0596553
0.0588741
0.0581232
0.0574033
0.0567159
0.0560633
0.0554492
0.0548804
0.0543636
0.0539224
0.0535674
0.0533361
0.0533924
0.0539963
0.140534
0.0610666
0.0469836
0.0440941
0.0442782
0.0458844
0.0482736
0.0511625
0.0543852
0.0578259
0.0614
0.0650493
0.0687403
0.0724614
0.0762169
0.0800214
0.0838948
0.0878581
0.0919309
0.096131
0.100473
0.104967
0.109625
0.114458
0.119466
0.124653
0.13002
0.135565
0.141289
0.147189
0.153259
0.159494
0.165884
0.17242
0.179089
0.185879
0.192774
0.199757
0.206808
0.213907
0.221033
0.228164
0.235275
0.242342
0.249338
0.25624
0.263022
0.269655
0.276115
0.282375
0.288413
0.294204
0.299728
0.304965
0.309896
0.314507
0.318782
0.32271
0.326278
0.329481
0.33231
0.334761
0.336833
0.338524
0.339836
0.340773
0.341322
0.341502
0.341329
0.340809
0.339948
0.33876
0.337255
0.335447
0.333348
0.330973
0.328336
0.325453
0.322338
0.319006
0.315473
0.311755
0.307866
0.303821
0.299635
0.295323
0.290899
0.286377
0.281771
0.277092
0.272354
0.267567
0.262744
0.257893
0.253026
0.24815
0.243277
0.238412
0.233565
0.228743
0.223952
0.219198
0.214489
0.209828
0.205221
0.200671
0.196184
0.191763
0.18741
0.183128
0.17892
0.174789
0.170734
0.166758
0.162863
0.159048
0.155315
0.151665
0.148096
0.14461
0.141207
0.137885
0.134646
0.131487
0.128409
0.12541
0.122489
0.119645
0.116877
0.114185
0.111567
0.109022
0.106549
0.104146
0.101812
0.0995455
0.097345
0.095209
0.093136
0.0911245
0.0891731
0.0872803
0.0854445
0.0836642
0.0819379
0.0802642
0.0786418
0.0770694
0.0755452
0.0740677
0.0726357
0.0712484
0.0699045
0.0686025
0.0673408
0.0661184
0.0649345
0.0637878
0.0626772
0.0616016
0.0605602
0.0595521
0.0585765
0.0576326
0.05672
0.055838
0.0549863
0.054165
0.0533742
0.0526144
0.0518869
0.0511935
0.0505374
0.049924
0.0493596
0.0488603
0.0484399
0.0481245
0.04801
0.0483074
0.167387
0.0719896
0.0542536
0.0499213
0.0493071
0.0502652
0.0520876
0.0544408
0.057149
0.0601037
0.0632332
0.0664912
0.0698518
0.0733058
0.076856
0.0805129
0.0842913
0.0882072
0.0922764
0.0965138
0.100933
0.105544
0.110357
0.115379
0.120615
0.126069
0.131742
0.137635
0.143745
0.150067
0.156595
0.163322
0.170237
0.177328
0.18458
0.191977
0.1995
0.207127
0.214836
0.222603
0.230401
0.238203
0.245981
0.253706
0.261348
0.268876
0.276262
0.283476
0.290488
0.29727
0.303796
0.310041
0.315981
0.321596
0.326866
0.331773
0.336303
0.340443
0.344183
0.347514
0.350431
0.35293
0.355009
0.356669
0.357914
0.358746
0.359155
0.359175
0.358805
0.358059
0.356947
0.355483
0.35368
0.351553
0.349118
0.346389
0.343385
0.340121
0.336615
0.332883
0.328942
0.32481
0.320503
0.316038
0.31143
0.306696
0.30185
0.296909
0.291886
0.286794
0.281648
0.276459
0.271238
0.265997
0.260747
0.255497
0.250255
0.245032
0.239835
0.234671
0.229548
0.224471
0.219448
0.214482
0.20958
0.204744
0.19998
0.195291
0.190679
0.186147
0.181697
0.177332
0.173053
0.168861
0.164757
0.160741
0.156815
0.152978
0.14923
0.145572
0.142002
0.138521
0.135127
0.13182
0.1286
0.125464
0.122412
0.119442
0.116554
0.113745
0.111015
0.108362
0.105784
0.10328
0.100848
0.0984864
0.0961936
0.0939677
0.0918077
0.0897119
0.0876789
0.0857069
0.0837945
0.0819401
0.080142
0.0783985
0.0767083
0.0750698
0.0734815
0.0719419
0.0704495
0.0690032
0.0676015
0.0662432
0.0649267
0.0636509
0.0624155
0.0612187
0.0600592
0.058936
0.0578483
0.0567951
0.0557755
0.0547887
0.053834
0.0529109
0.0520189
0.0511579
0.050328
0.0495294
0.0487632
0.0480309
0.047335
0.0466799
0.0460711
0.0455202
0.0450395
0.0446504
0.0443875
0.0444835
0.187769
0.0807326
0.0598853
0.0542096
0.0528606
0.0532251
0.054543
0.0564387
0.0587251
0.0612967
0.0640895
0.0670637
0.0701968
0.0734842
0.0769274
0.0805333
0.084312
0.0882747
0.0924312
0.0967968
0.101386
0.106209
0.111276
0.116595
0.12217
0.128006
0.134105
0.140466
0.147086
0.15396
0.161081
0.168437
0.176018
0.183806
0.191784
0.199931
0.208223
0.216636
0.22514
0.233707
0.242305
0.250901
0.259463
0.267956
0.276344
0.284595
0.292673
0.300545
0.30818
0.315545
0.322612
0.329355
0.335747
0.341766
0.347392
0.352607
0.357397
0.361747
0.36565
0.369096
0.372082
0.374605
0.376665
0.378264
0.379408
0.380095
0.380337
0.38015
0.379543
0.378528
0.377121
0.375336
0.37319
0.370698
0.36788
0.364752
0.361334
0.357644
0.353701
0.349523
0.34513
0.34054
0.335771
0.330841
0.325768
0.320569
0.31526
0.309857
0.304376
0.29883
0.293235
0.287603
0.281946
0.276276
0.270604
0.26494
0.259293
0.253674
0.24809
0.242549
0.237058
0.231623
0.226251
0.220948
0.215716
0.210562
0.205489
0.200501
0.195599
0.190788
0.186068
0.181441
0.17691
0.172474
0.168135
0.163893
0.159749
0.155702
0.151752
0.147899
0.144142
0.140481
0.136914
0.13344
0.130059
0.126769
0.123568
0.120456
0.11743
0.114489
0.111631
0.108856
0.10616
0.103542
0.101001
0.0985349
0.0961414
0.0938189
0.0915657
0.0893799
0.0872599
0.0852039
0.0832102
0.081277
0.0794022
0.0775846
0.0758226
0.0741146
0.0724591
0.0708545
0.0692993
0.067792
0.0663313
0.0649156
0.0635437
0.0622142
0.0609261
0.0596781
0.0584689
0.0572974
0.0561632
0.0550649
0.0540013
0.0529719
0.0519758
0.0510123
0.0500809
0.0491814
0.0483137
0.047478
0.0466749
0.0459057
0.0451725
0.0444787
0.0438291
0.0432321
0.0426978
0.042244
0.0418784
0.0418059
0.201539
0.0872435
0.0639254
0.0570925
0.0550775
0.0549464
0.0558454
0.0573788
0.0593448
0.0616376
0.0642028
0.0670114
0.0700372
0.073263
0.076686
0.0803111
0.0841509
0.0882184
0.0925286
0.0970978
0.101939
0.107063
0.112479
0.118195
0.124216
0.130548
0.137191
0.144144
0.151403
0.158962
0.166811
0.174935
0.183319
0.191943
0.200783
0.209813
0.219005
0.228327
0.237744
0.247222
0.256722
0.266207
0.275636
0.28497
0.294169
0.303194
0.312007
0.32057
0.328849
0.336809
0.34442
0.351652
0.35848
0.364881
0.370834
0.376321
0.381327
0.385842
0.389857
0.393366
0.396364
0.398854
0.400835
0.402313
0.403295
0.403783
0.403796
0.403343
0.402438
0.401098
0.39934
0.39718
0.394638
0.391732
0.388483
0.38491
0.381034
0.376875
0.372455
0.367793
0.362911
0.357827
0.352563
0.347136
0.341567
0.335873
0.330071
0.32418
0.318214
0.31219
0.306121
0.300022
0.293905
0.287784
0.281668
0.27557
0.269499
0.263463
0.257473
0.251536
0.245658
0.239848
0.23411
0.22845
0.222874
0.217385
0.211987
0.206683
0.201477
0.19637
0.191365
0.186463
0.181665
0.176973
0.172386
0.167905
0.163531
0.159262
0.155098
0.151039
0.147084
0.143232
0.139481
0.135831
0.132281
0.128827
0.12547
0.122206
0.119035
0.115955
0.112964
0.110059
0.10724
0.104503
0.101848
0.0992711
0.0967718
0.0943474
0.0919962
0.0897162
0.0875054
0.085362
0.083284
0.0812698
0.0793173
0.0774248
0.0755904
0.0738126
0.0720896
0.0704197
0.0688012
0.0672326
0.0657126
0.0642398
0.0628126
0.0614296
0.0600897
0.0587915
0.0575337
0.0563152
0.055135
0.053992
0.0528851
0.0518139
0.0507773
0.0497745
0.048805
0.0478683
0.0469643
0.0460929
0.0452548
0.0444507
0.0436824
0.0429525
0.0422651
0.0416266
0.0410447
0.0405338
0.0400922
0.0398784
0.209287
0.0916968
0.0665555
0.0587751
0.0561674
0.0556478
0.056217
0.0574888
0.05926
0.0614086
0.0638605
0.0665726
0.0695317
0.0727412
0.0762048
0.0799307
0.083926
0.0882012
0.0927565
0.0976183
0.102808
0.108337
0.114214
0.120447
0.127043
0.134004
0.141331
0.149023
0.157071
0.165467
0.174196
0.183241
0.192579
0.202184
0.212027
0.222074
0.23229
0.242635
0.253068
0.263547
0.274027
0.284462
0.294807
0.305017
0.315046
0.324852
0.334393
0.343627
0.352519
0.361031
0.369133
0.376795
0.38399
0.390697
0.396895
0.402568
0.407703
0.412291
0.416325
0.419802
0.422721
0.425084
0.426896
0.428164
0.428898
0.429107
0.428809
0.428012
0.426736
0.425001
0.422825
0.42023
0.417234
0.413861
0.41013
0.406066
0.401689
0.397023
0.392089
0.38691
0.381508
0.375904
0.370118
0.364172
0.358086
0.351878
0.345567
0.339171
0.332707
0.32619
0.319636
0.31306
0.306474
0.299892
0.293325
0.286784
0.28028
0.273822
0.26742
0.26108
0.25481
0.248618
0.242509
0.236489
0.230562
0.224733
0.219005
0.213382
0.207867
0.202461
0.197166
0.191984
0.186916
0.181962
0.177124
0.1724
0.167791
0.163296
0.158915
0.154647
0.15049
0.146444
0.142507
0.138677
0.134953
0.131334
0.127817
0.1244
0.121082
0.11786
0.114732
0.111697
0.108752
0.105894
0.103123
0.100435
0.0978283
0.0953011
0.0928509
0.0904757
0.0881735
0.0859421
0.0837796
0.0816839
0.079653
0.0776851
0.0757782
0.0739305
0.0721402
0.0704056
0.0687249
0.0670964
0.0655185
0.0639897
0.0625085
0.0610732
0.0596827
0.0583356
0.0570307
0.0557665
0.0545421
0.0533563
0.0522079
0.0510963
0.0500203
0.0489793
0.047973
0.0470005
0.0460616
0.0451563
0.0442847
0.0434475
0.0426461
0.0418825
0.04116
0.0404835
0.039859
0.0392977
0.0387957
0.0384687
0.211775
0.0943317
0.0679921
0.0594793
0.0563965
0.0555954
0.0559758
0.0570997
0.0587297
0.0607575
0.0631339
0.0658327
0.0688382
0.0721461
0.0757595
0.0796886
0.0839342
0.0884902
0.0933989
0.0986822
0.104357
0.110436
0.116928
0.123841
0.13118
0.138949
0.147144
0.155761
0.164787
0.174208
0.184003
0.194147
0.204609
0.215356
0.226349
0.237546
0.248902
0.26037
0.271898
0.283438
0.294936
0.306341
0.317602
0.328668
0.339491
0.350023
0.360221
0.370043
0.37945
0.388407
0.396882
0.404847
0.412278
0.419154
0.425458
0.431177
0.436299
0.44082
0.444735
0.448045
0.450752
0.452861
0.454382
0.455323
0.455698
0.455524
0.454814
0.453577
0.451843
0.449633
0.446967
0.443868
0.440357
0.436459
0.432197
0.427596
0.422678
0.417468
0.41199
0.406267
0.400321
0.394176
0.387853
0.381374
0.374759
0.368028
0.361201
0.354295
0.347329
0.340318
0.333279
0.326225
0.319172
0.312132
0.305116
0.298137
0.291204
0.284328
0.277517
0.27078
0.264124
0.257555
0.25108
0.244703
0.238431
0.232267
0.226214
0.220276
0.214455
0.208753
0.203173
0.197715
0.19238
0.187169
0.182081
0.177117
0.172277
0.167559
0.162963
0.158487
0.154131
0.149893
0.145771
0.141763
0.137869
0.134085
0.130409
0.126841
0.123376
0.120014
0.116752
0.113587
0.110517
0.107541
0.104654
0.101856
0.0991436
0.0965146
0.0939667
0.0914977
0.0891053
0.0867872
0.0845414
0.0823656
0.0802578
0.0782159
0.0762379
0.0743217
0.0724656
0.0706676
0.0689259
0.0672387
0.0656043
0.0640212
0.0624876
0.0610019
0.0595628
0.0581688
0.0568185
0.0555105
0.0542437
0.0530169
0.0518289
0.0506789
0.0495657
0.0484886
0.047447
0.0464402
0.0454679
0.0445301
0.0436266
0.0427581
0.0419254
0.0411303
0.0403751
0.0396637
0.0390008
0.0383948
0.0378422
0.0374253
0.209882
0.0953236
0.0684237
0.0594479
0.056091
0.0550866
0.0552816
0.0562742
0.057844
0.0598746
0.0623054
0.0651077
0.0682697
0.0717939
0.0756726
0.0798987
0.0844947
0.0895013
0.0949415
0.100836
0.107199
0.114039
0.12137
0.129197
0.137524
0.146348
0.155662
0.165454
0.175704
0.186387
0.197473
0.208926
0.220705
0.232763
0.245052
0.257518
0.270106
0.282758
0.295416
0.30802
0.320514
0.332839
0.344941
0.356764
0.36826
0.37938
0.390079
0.400317
0.410058
0.419268
0.427918
0.435985
0.443446
0.450286
0.456491
0.462053
0.466965
0.471225
0.474835
0.477799
0.480123
0.481817
0.482893
0.483364
0.483248
0.482567
0.481317
0.479537
0.477249
0.474475
0.471238
0.467563
0.463473
0.458995
0.454152
0.44897
0.443475
0.437691
0.431642
0.425354
0.418849
0.412151
0.405282
0.398264
0.391119
0.383866
0.376525
0.369115
0.361654
0.354158
0.346643
0.339124
0.331615
0.324129
0.316678
0.309274
0.301927
0.294647
0.287443
0.280322
0.273293
0.266361
0.259534
0.252815
0.24621
0.239724
0.233358
0.227117
0.221003
0.215018
0.209162
0.203438
0.197847
0.192387
0.18706
0.181865
0.176801
0.171868
0.167064
0.162388
0.157839
0.153416
0.149115
0.144936
0.140876
0.136933
0.133104
0.129388
0.125783
0.122285
0.118892
0.115601
0.112411
0.109319
0.106321
0.103416
0.100601
0.0978734
0.0952309
0.092671
0.0901913
0.0877893
0.0854629
0.0832098
0.0810276
0.0789142
0.0768674
0.0748853
0.0729657
0.0711066
0.0693062
0.0675626
0.065874
0.0642385
0.0626546
0.0611206
0.0596349
0.058196
0.0568024
0.0554528
0.0541457
0.0528801
0.0516546
0.0504682
0.0493199
0.0482087
0.047134
0.046095
0.0450913
0.0441226
0.0431889
0.0422907
0.0414286
0.0406037
0.0398181
0.0390747
0.0383769
0.0377311
0.0371347
0.0366458
0.206213
0.095388
0.0682962
0.0590204
0.0553741
0.0541991
0.0543279
0.0553212
0.0569496
0.0590978
0.0617103
0.0647586
0.0682178
0.0720679
0.0763339
0.0810546
0.0862569
0.0919685
0.0982139
0.105012
0.112368
0.120296
0.128803
0.137892
0.147558
0.157789
0.168567
0.179867
0.191655
0.203893
0.216533
0.229526
0.242814
0.256338
0.270035
0.28384
0.297686
0.311507
0.325239
0.338815
0.352175
0.365258
0.378008
0.390372
0.402302
0.413752
0.424682
0.435056
0.444841
0.454011
0.462542
0.470417
0.477619
0.484139
0.489969
0.495107
0.499551
0.503307
0.506378
0.508775
0.510509
0.511592
0.512042
0.511878
0.511124
0.509771
0.507863
0.505424
0.502477
0.499045
0.495155
0.49083
0.486098
0.480984
0.475515
0.469715
0.46361
0.457227
0.45059
0.443723
0.436651
0.429396
0.421982
0.414431
0.406763
0.398998
0.391158
0.383259
0.37532
0.367357
0.359386
0.351422
0.343479
0.33557
0.327708
0.319902
0.312164
0.304503
0.296928
0.289447
0.282068
0.274796
0.267638
0.260598
0.253682
0.246893
0.240235
0.23371
0.227321
0.221069
0.214956
0.208982
0.203149
0.197456
0.191904
0.186491
0.181217
0.176081
0.171082
0.166217
0.161487
0.156888
0.152418
0.148077
0.14386
0.139766
0.135793
0.131938
0.128198
0.124571
0.121054
0.117645
0.11434
0.111138
0.108034
0.105028
0.102115
0.0992939
0.0965614
0.093915
0.0913523
0.0888706
0.0864675
0.0841407
0.0818878
0.0797064
0.0775944
0.0755494
0.0735695
0.0716525
0.0697963
0.0679991
0.066259
0.064574
0.0629424
0.0613625
0.0598327
0.0583513
0.0569168
0.0555277
0.0541828
0.0528805
0.0516197
0.0503992
0.0492179
0.0480748
0.0469691
0.0459001
0.0448671
0.0438697
0.0429079
0.0419817
0.0410918
0.0402392
0.0394253
0.0386522
0.0379227
0.0372415
0.0366066
0.0360591
0.200109
0.0947524
0.0677609
0.0582363
0.0544725
0.053265
0.0534487
0.0545728
0.0564152
0.0588473
0.0617942
0.0652143
0.0691331
0.0735821
0.0785822
0.0841625
0.0903529
0.0971828
0.104677
0.112838
0.121676
0.131197
0.141397
0.152263
0.163774
0.175899
0.188599
0.201827
0.215528
0.229641
0.2441
0.258833
0.273767
0.288829
0.303941
0.319029
0.33402
0.348843
0.363429
0.377714
0.391637
0.405143
0.41818
0.430702
0.442666
0.454036
0.464779
0.474869
0.484283
0.493002
0.501011
0.508302
0.514866
0.520702
0.52581
0.530193
0.533858
0.536814
0.539072
0.540645
0.54155
0.541801
0.541438
0.54045
0.53886
0.536703
0.534003
0.530783
0.527069
0.522886
0.51826
0.513217
0.507783
0.501984
0.495847
0.489398
0.482661
0.475662
0.468426
0.460977
0.453339
0.445534
0.437585
0.429514
0.421341
0.413085
0.404767
0.396404
0.388014
0.379612
0.371215
0.362837
0.354491
0.34619
0.337947
0.329771
0.321673
0.313663
0.305749
0.297939
0.290239
0.282656
0.275196
0.267864
0.260664
0.253599
0.246674
0.23989
0.23325
0.226754
0.220406
0.214205
0.208151
0.202245
0.196486
0.190873
0.185407
0.180085
0.174906
0.169868
0.16497
0.16021
0.155584
0.151093
0.146731
0.142499
0.138391
0.134407
0.130543
0.126796
0.123164
0.119644
0.116233
0.112928
0.109726
0.106625
0.103621
0.100713
0.0978961
0.0951689
0.0925286
0.0899723
0.0874976
0.0851019
0.0827828
0.0805378
0.0783647
0.076261
0.0742246
0.0722533
0.070345
0.0684977
0.0667093
0.0649779
0.0633017
0.061679
0.0601078
0.0585867
0.057114
0.0556881
0.0543077
0.0529712
0.0516775
0.0504252
0.0492132
0.0480404
0.046906
0.045809
0.0447489
0.043725
0.0427371
0.0417852
0.0408697
0.0399911
0.0391509
0.0383506
0.0375921
0.0368791
0.0362101
0.0356144
0.192706
0.0932021
0.0667704
0.0573337
0.053648
0.0525909
0.0530357
0.0544924
0.0567052
0.0595874
0.0631212
0.0673142
0.0721764
0.0777368
0.0840248
0.0910705
0.0989036
0.107552
0.11702
0.127312
0.138419
0.150321
0.162984
0.176364
0.190406
0.205044
0.220205
0.235811
0.251776
0.268014
0.284437
0.300955
0.317481
0.333932
0.350227
0.366288
0.382044
0.39743
0.412383
0.426849
0.440778
0.454127
0.466856
0.478934
0.490331
0.501024
0.510996
0.520231
0.528718
0.536451
0.543427
0.549647
0.555112
0.559827
0.563803
0.567049
0.569577
0.571401
0.572543
0.573011
0.572833
0.572042
0.570612
0.568601
0.566026
0.562913
0.559284
0.555165
0.550582
0.545559
0.540122
0.534298
0.528111
0.521587
0.514752
0.507631
0.500248
0.492627
0.484792
0.476767
0.468574
0.460234
0.451771
0.443203
0.434551
0.425834
0.41707
0.408277
0.399471
0.390667
0.381881
0.373127
0.364417
0.355764
0.347179
0.338672
0.330254
0.321933
0.313717
0.305614
0.297631
0.289773
0.282046
0.274455
0.267004
0.259696
0.252534
0.245521
0.238659
0.231949
0.225392
0.218988
0.212739
0.206643
0.200701
0.194911
0.189273
0.183785
0.178445
0.173253
0.168205
0.163299
0.158535
0.153908
0.149417
0.145058
0.14083
0.136729
0.132752
0.128897
0.125161
0.12154
0.118032
0.114634
0.111342
0.108155
0.105068
0.10208
0.0991863
0.0963853
0.0936738
0.0910492
0.0885087
0.0860498
0.0836699
0.0813665
0.0791371
0.0769794
0.0748911
0.0728698
0.0709134
0.0690199
0.067187
0.0654129
0.0636956
0.0620333
0.0604241
0.0588663
0.0573583
0.0558985
0.0544854
0.0531174
0.0517933
0.0505116
0.0492713
0.0480712
0.0469103
0.0457877
0.0447025
0.0436543
0.0426425
0.0416671
0.040728
0.0398258
0.0389613
0.038136
0.0373512
0.0366097
0.0359104
0.0352744
0.185233
0.0912161
0.0656435
0.0565666
0.053264
0.0526369
0.0535477
0.0556066
0.0586493
0.0626016
0.06745
0.0732134
0.0799186
0.0875978
0.0962806
0.105989
0.116732
0.128501
0.141281
0.155054
0.169754
0.185292
0.20157