/*--------------------------------*- C++ -*----------------------------------*\
  =========                 |
  \\      /  F ield         | OpenFOAM: The Open Source CFD Toolbox
   \\    /   O peration     | Website:  https://openfoam.org
    \\  /    A nd           | Version:  6
     \\/     M anipulation  |
\*---------------------------------------------------------------------------*/
FoamFile
{
    version     2.0;
    format      ascii;
    class       volScalarField;
    location    "235";
    object      k;
}
// * * * * * * * * * * * * * * * * * * * * * * * * * * * * * * * * * * * * * //

dimensions      [0 2 -2 0 0 0 0];

internalField   nonuniform List<scalar> 
12225
(
0.222225
0.0806546
0.0596039
0.050149
0.0440844
0.0396341
0.036158
0.0333411
0.0310023
0.0290271
0.0273384
0.0258825
0.0246218
0.0235313
0.0225973
0.0218384
0.0212732
0.0216052
0.295418
0.178853
0.144741
0.127336
0.115751
0.107059
0.100135
0.0944224
0.089599
0.0854606
0.0818686
0.078725
0.0759581
0.0735159
0.0713552
0.0694633
0.0677157
0.0665014
0.322574
0.22871
0.18954
0.167817
0.153047
0.141859
0.132878
0.125416
0.119075
0.113601
0.108821
0.104611
0.100879
0.0975541
0.0945753
0.0919013
0.0894363
0.0873005
0.336236
0.260454
0.220363
0.196211
0.17934
0.166419
0.155979
0.147261
0.139823
0.133378
0.127731
0.12274
0.118298
0.114321
0.110736
0.107488
0.104506
0.101859
0.344579
0.283002
0.244287
0.218993
0.200722
0.186514
0.174939
0.16522
0.156892
0.149652
0.143288
0.137648
0.132613
0.12809
0.123999
0.120278
0.116875
0.113831
0.350277
0.299798
0.263681
0.238218
0.219118
0.203981
0.191516
0.180978
0.171903
0.163983
0.157
0.150793
0.145237
0.140233
0.135698
0.131568
0.1278
0.124414
0.354395
0.312575
0.279611
0.254708
0.23528
0.219541
0.20641
0.195213
0.185514
0.177011
0.169487
0.16278
0.156761
0.151327
0.146396
0.141903
0.13781
0.134116
0.357427
0.322337
0.292661
0.268837
0.249513
0.233481
0.219902
0.208207
0.198004
0.189013
0.181025
0.17388
0.167451
0.161635
0.156351
0.151536
0.147149
0.143176
0.359645
0.329725
0.3032
0.280786
0.261923
0.245883
0.232073
0.220044
0.209464
0.200084
0.191712
0.184196
0.177414
0.171266
0.165673
0.160574
0.155925
0.151699
0.361228
0.335197
0.311505
0.29066
0.272528
0.256735
0.242904
0.230707
0.219884
0.210223
0.201555
0.193741
0.186668
0.180242
0.174387
0.169043
0.164165
0.159714
0.362313
0.339102
0.317812
0.298546
0.28132
0.265983
0.252321
0.240123
0.229193
0.219365
0.210496
0.202466
0.195172
0.188527
0.182461
0.176916
0.171844
0.167201
0.36296
0.341518
0.321979
0.304053
0.287727
0.272943
0.259587
0.247525
0.236622
0.226748
0.217789
0.20964
0.202212
0.195427
0.18922
0.183533
0.17832
0.173536
0.363383
0.343126
0.32493
0.30817
0.292727
0.278556
0.265596
0.253771
0.24299
0.23316
0.224188
0.215992
0.208492
0.201621
0.195319
0.189533
0.184215
0.17932
0.363669
0.344174
0.327002
0.311297
0.296763
0.283305
0.270872
0.259417
0.248882
0.239205
0.230317
0.222153
0.214652
0.207753
0.201405
0.195558
0.190169
0.185193
0.363836
0.344681
0.328096
0.313164
0.299432
0.286706
0.27489
0.263924
0.253762
0.244361
0.235672
0.227647
0.220237
0.213392
0.207067
0.201221
0.195812
0.190802
0.363918
0.344785
0.328356
0.31381
0.300613
0.288484
0.277253
0.266819
0.257118
0.248102
0.239726
0.231948
0.224728
0.218027
0.211808
0.206035
0.200672
0.195686
0.363951
0.344688
0.328128
0.313624
0.300656
0.28888
0.27807
0.268078
0.258805
0.25018
0.24215
0.23467
0.2277
0.221206
0.215154
0.209512
0.20425
0.199341
0.363968
0.3446
0.327877
0.313273
0.30032
0.288666
0.278058
0.268314
0.259304
0.250938
0.243149
0.235886
0.229108
0.222777
0.216861
0.211331
0.206159
0.201318
0.363977
0.344656
0.327986
0.313422
0.300484
0.288826
0.278196
0.26842
0.259373
0.25097
0.243145
0.235847
0.229036
0.222674
0.21673
0.211172
0.205975
0.201114
0.363946
0.344787
0.328333
0.313847
0.300791
0.288845
0.277824
0.267606
0.258109
0.249274
0.241051
0.233398
0.226275
0.219643
0.213468
0.207717
0.202357
0.19736
0.363855
0.344698
0.328107
0.31321
0.29954
0.286892
0.275154
0.26426
0.25416
0.244805
0.236148
0.228137
0.220724
0.213865
0.207513
0.201626
0.196168
0.191103
0.363547
0.343717
0.326121
0.309989
0.295081
0.281326
0.268661
0.257027
0.246357
0.23658
0.22762
0.219406
0.211866
0.204936
0.198558
0.192678
0.187251
0.182237
0.362781
0.340916
0.321027
0.302802
0.286237
0.271276
0.257795
0.245646
0.23468
0.22476
0.215766
0.207591
0.200141
0.193337
0.187108
0.181392
0.176137
0.171299
0.36122
0.33527
0.311715
0.290884
0.272715
0.256862
0.242954
0.230676
0.219767
0.21002
0.201266
0.19337
0.18622
0.179723
0.1738
0.168384
0.16342
0.158863
0.358469
0.325765
0.297491
0.274123
0.254825
0.23863
0.224804
0.212828
0.202334
0.193053
0.184783
0.177369
0.170688
0.16464
0.159145
0.154134
0.149552
0.145354
0.354102
0.311262
0.277797
0.25257
0.232956
0.217104
0.203888
0.19262
0.182852
0.174282
0.166691
0.159916
0.153833
0.148343
0.143366
0.138837
0.134703
0.130923
0.347419
0.290003
0.251844
0.226051
0.207146
0.19235
0.18024
0.170033
0.161256
0.153599
0.146847
0.140842
0.135465
0.130623
0.126241
0.122261
0.118632
0.115321
0.336654
0.258651
0.217813
0.193318
0.176267
0.163238
0.152709
0.143906
0.13638
0.129844
0.124102
0.11901
0.114463
0.110377
0.106686
0.103339
0.100291
0.0975203
0.316171
0.209265
0.169978
0.149177
0.135303
0.124883
0.116545
0.109627
0.10375
0.0986755
0.0942395
0.0903241
0.0868415
0.0837237
0.0809173
0.0783796
0.076072
0.0739922
0.264393
0.11775
0.0864066
0.0723422
0.0634878
0.0570188
0.051942
0.0478007
0.0443376
0.0413902
0.0388482
0.0366329
0.0346859
0.0329626
0.0314279
0.0300548
0.0288142
0.0277164
9.82035e-06
7.47035e-05
0.000153119
0.000227871
0.00029223
0.000349918
0.000408672
0.000467843
0.000529284
0.000594674
0.000665041
0.00074112
0.000823808
0.000914338
0.00101416
0.00112484
0.00124784
0.00138438
0.0015353
0.00170114
0.00188213
0.00207836
0.00228931
0.00251433
0.00275256
0.00300324
0.00326516
0.00353642
0.00381587
0.00410246
0.00439498
0.0046925
0.00499391
0.00529839
0.00560487
0.00591262
0.0062206
0.0065281
0.00683407
0.00713782
0.00743828
0.00773475
0.00802618
0.00831202
0.0085915
0.00886478
0.00913256
0.00939806
0.00965204
0.00989794
0.0101341
0.0103608
0.0105773
0.0107833
0.0109783
0.011162
0.011334
0.0114942
0.011642
0.0117776
0.0119005
0.0120108
0.0121083
0.0121931
0.0122652
0.0123247
0.0123716
0.0124062
0.0124284
0.0124362
0.0124349
0.0124219
0.0123974
0.0123619
0.0123157
0.0122593
0.0121929
0.0121171
0.0120323
0.0119388
0.0118373
0.011728
0.0116115
0.0114883
0.0113588
0.0112234
0.0110827
0.010937
0.0107866
0.0106321
0.0104744
0.0103138
0.0101501
0.00998362
0.00981499
0.0096446
0.00947284
0.00930007
0.00912664
0.00895285
0.00877902
0.00860543
0.00843236
0.00826004
0.00808876
0.0079187
0.00775011
0.00758313
0.00741798
0.00725479
0.00709374
0.00693491
0.00677847
0.00662451
0.00647314
0.00632441
0.0061785
0.00603545
0.00589524
0.00575784
0.00562338
0.00549191
0.00536346
0.00523798
0.00511549
0.00499595
0.00487936
0.00476567
0.00465488
0.00454692
0.00444178
0.00433939
0.00423972
0.00414272
0.00404835
0.00395657
0.00386738
0.00378073
0.00369656
0.00361477
0.00353528
0.00345803
0.00338294
0.00330996
0.00323891
0.00317025
0.00310347
0.00303849
0.00297532
0.00291392
0.00285425
0.00279626
0.00273989
0.00268508
0.00263177
0.00257992
0.0025295
0.00248045
0.00243274
0.00238631
0.00234112
0.00229711
0.00225424
0.00221247
0.00217176
0.00213205
0.00209329
0.00205543
0.0020184
0.00198213
0.00194654
0.0019115
0.00187695
0.0018425
0.00180847
0.00177332
0.00173896
0.00170053
0.00166536
0.00151392
6.1277e-05
0.000490747
0.000945687
0.00131016
0.00161038
0.0018717
0.00211151
0.00234671
0.0025864
0.0028345
0.00309188
0.00335852
0.00363503
0.00392275
0.00422321
0.0045379
0.00486795
0.00521403
0.00557632
0.00595465
0.00634856
0.00675732
0.00717995
0.0076155
0.00806289
0.00852109
0.00898898
0.00946547
0.00994949
0.0104401
0.0109361
0.0114367
0.0119407
0.0124471
0.012955
0.0134632
0.0139707
0.0144765
0.0149794
0.0154784
0.0159721
0.0164595
0.0169392
0.0174099
0.0178699
0.0183176
0.0187508
0.0191667
0.0195692
0.0199584
0.0203337
0.0206945
0.0210399
0.0213693
0.0216821
0.0219777
0.0222556
0.0225152
0.0227563
0.0229784
0.0231813
0.0233648
0.0235288
0.0236732
0.0237981
0.0239036
0.0239898
0.0240571
0.0241056
0.024132
0.0241411
0.0241338
0.0241088
0.0240668
0.0240083
0.0239339
0.0238441
0.0237396
0.0236209
0.0234888
0.0233439
0.0231868
0.0230182
0.0228389
0.0226494
0.0224505
0.0222428
0.0220269
0.0218035
0.0215732
0.021337
0.0210954
0.0208483
0.0205966
0.0203408
0.0200814
0.0198191
0.0195544
0.0192877
0.0190196
0.0187505
0.0184808
0.0182109
0.0179414
0.0176724
0.0174044
0.0171376
0.0168725
0.0166093
0.0163481
0.0160894
0.0158333
0.0155799
0.0153296
0.0150825
0.0148387
0.0145983
0.0143615
0.0141283
0.0138989
0.0136736
0.0134523
0.0132352
0.0130221
0.0128132
0.0126085
0.0124079
0.0122114
0.0120191
0.0118309
0.0116468
0.0114667
0.0112906
0.0111184
0.0109502
0.0107859
0.0106255
0.0104689
0.0103161
0.010167
0.0100214
0.00987925
0.00974047
0.00960498
0.00947277
0.00934311
0.00921626
0.00909235
0.0089714
0.00885337
0.00873817
0.00862571
0.00851591
0.00840866
0.0083039
0.00820157
0.00810161
0.00800396
0.00790853
0.00781526
0.00772405
0.00763483
0.00754754
0.00746212
0.0073785
0.00729659
0.0072163
0.00713753
0.00706018
0.00698413
0.00690924
0.00683529
0.00676218
0.00668935
0.00661718
0.00654372
0.00647154
0.0063955
0.00632619
0.00608109
0.000147417
0.00107927
0.00185353
0.00241761
0.00287782
0.00328703
0.0036723
0.0040489
0.00442472
0.00480304
0.00518477
0.00557022
0.00596016
0.00635604
0.00675975
0.00717333
0.00759863
0.00803715
0.00848992
0.00895748
0.00943981
0.00993653
0.0104471
0.0109709
0.011507
0.0120545
0.0126122
0.0131792
0.0137542
0.0143362
0.014924
0.0155164
0.0161123
0.0167107
0.0173103
0.01791
0.0185087
0.0191052
0.0196983
0.0202868
0.0208695
0.0214451
0.0220124
0.0225701
0.0231169
0.0236516
0.0241731
0.0246805
0.0251731
0.02565
0.0261103
0.026553
0.0269771
0.0273818
0.0277661
0.0281295
0.0284711
0.0287903
0.0290867
0.0293598
0.0296092
0.0298347
0.0300362
0.0302135
0.0303667
0.0304959
0.0306013
0.030683
0.0307415
0.0307745
0.0307851
0.0307747
0.0307427
0.0306897
0.0306164
0.0305234
0.0304114
0.0302811
0.0301333
0.0299689
0.0297885
0.0295931
0.0293834
0.0291603
0.0289246
0.0286771
0.0284185
0.0281497
0.0278714
0.0275844
0.0272896
0.0269876
0.0266792
0.0263649
0.0260454
0.0257213
0.0253934
0.0250623
0.0247285
0.0243926
0.0240552
0.0237168
0.0233779
0.0230389
0.0227003
0.0223626
0.0220261
0.0216912
0.0213582
0.0210275
0.0206994
0.0203741
0.0200518
0.019733
0.0194176
0.019106
0.0187984
0.0184947
0.0181953
0.0179002
0.0176096
0.0173236
0.0170423
0.0167657
0.0164939
0.0162269
0.0159648
0.0157075
0.0154551
0.0152075
0.0149648
0.0147269
0.0144938
0.0142654
0.0140417
0.0138229
0.0136088
0.0133993
0.0131945
0.0129941
0.012798
0.0126063
0.0124187
0.0122353
0.0120559
0.0118803
0.0117084
0.0115403
0.011376
0.0112152
0.0110581
0.0109045
0.0107542
0.0106073
0.0104637
0.0103232
0.0101859
0.0100517
0.00992046
0.00979211
0.00966656
0.00954376
0.00942367
0.0093062
0.0091913
0.00907888
0.00896887
0.00886122
0.00875587
0.00865274
0.00855179
0.00845294
0.00835625
0.00826157
0.00816945
0.00807932
0.00799413
0.00791091
0.00784964
0.00768973
0.000257761
0.00170192
0.00274319
0.00345779
0.00402691
0.0045252
0.00498846
0.00543585
0.0058775
0.0063182
0.00676006
0.00720423
0.00765203
0.00810525
0.00856609
0.0090368
0.00951944
0.0100157
0.0105266
0.0110527
0.0115943
0.0121511
0.0127226
0.0133081
0.0139066
0.0145172
0.0151389
0.0157704
0.0164108
0.0170588
0.0177135
0.0183737
0.0190382
0.019706
0.0203758
0.0210466
0.021717
0.0223858
0.0230518
0.0237136
0.0243699
0.0250194
0.0256607
0.0262923
0.0269129
0.0275213
0.028116
0.0286957
0.0292591
0.029805
0.030332
0.0308391
0.0313249
0.0317885
0.0322288
0.0326449
0.033036
0.0334014
0.0337404
0.0340525
0.0343374
0.0345947
0.0348242
0.0350258
0.0351995
0.0353455
0.0354639
0.0355551
0.0356192
0.0356548
0.0356647
0.0356496
0.0356098
0.0355458
0.0354583
0.0353482
0.0352162
0.0350631
0.03489
0.0346976
0.034487
0.034259
0.0340146
0.0337547
0.0334803
0.0331923
0.0328916
0.0325791
0.0322558
0.0319225
0.0315802
0.0312295
0.0308715
0.0305067
0.0301361
0.0297603
0.02938
0.0289961
0.0286091
0.0282197
0.0278285
0.0274362
0.0270432
0.0266502
0.0262575
0.0258658
0.0254754
0.0250867
0.0247002
0.0243162
0.0239351
0.0235571
0.0231826
0.0228117
0.0224449
0.0220822
0.0217239
0.0213701
0.0210211
0.0206769
0.0203376
0.0200035
0.0196746
0.019351
0.0190327
0.0187198
0.0184123
0.0181103
0.0178137
0.0175226
0.017237
0.0169568
0.016682
0.0164125
0.0161483
0.0158895
0.0156359
0.0153876
0.0151444
0.0149063
0.0146731
0.0144449
0.0142214
0.0140026
0.0137885
0.0135788
0.0133736
0.0131729
0.0129764
0.0127842
0.012596
0.0124119
0.0122317
0.0120554
0.0118828
0.0117141
0.011549
0.0113875
0.0112295
0.0110749
0.0109236
0.0107756
0.0106308
0.0104892
0.0103506
0.0102151
0.0100824
0.00995272
0.00982588
0.00970185
0.00958064
0.00946224
0.00934677
0.0092343
0.00912535
0.00902018
0.00892091
0.00882631
0.00875953
0.00862635
0.000376397
0.00229574
0.00355985
0.00439617
0.00504821
0.00560744
0.00611773
0.00660306
0.00707709
0.00754747
0.00801854
0.00849303
0.00897313
0.00946097
0.00995872
0.0104684
0.0109919
0.0115305
0.0120851
0.012656
0.0132435
0.0138471
0.0144664
0.0151007
0.0157491
0.0164108
0.0170847
0.0177698
0.0184652
0.0191697
0.0198824
0.0206021
0.0213276
0.0220578
0.0227914
0.0235272
0.0242638
0.0249998
0.0257338
0.0264643
0.0271898
0.0279086
0.0286193
0.0293202
0.0300097
0.0306861
0.0313478
0.0319931
0.0326206
0.0332286
0.0338157
0.0343805
0.0349215
0.0354376
0.0359276
0.0363905
0.0368253
0.0372312
0.0376075
0.0379536
0.0382691
0.0385537
0.038807
0.0390291
0.0392199
0.0393795
0.0395083
0.0396064
0.0396744
0.0397108
0.0397188
0.0396985
0.0396505
0.0395755
0.0394743
0.0393478
0.039197
0.0390228
0.0388262
0.0386083
0.03837
0.0381124
0.0378365
0.0375435
0.0372343
0.0369101
0.0365718
0.0362205
0.0358573
0.0354831
0.0350988
0.0347055
0.0343039
0.0338951
0.0334798
0.0330589
0.0326331
0.0322033
0.0317702
0.0313346
0.030897
0.0304582
0.0300188
0.0295793
0.0291403
0.0287024
0.028266
0.0278315
0.0273995
0.0269702
0.0265442
0.0261216
0.0257029
0.0252882
0.024878
0.0244723
0.0240715
0.0236757
0.0232852
0.0228999
0.0225201
0.022146
0.0217775
0.0214149
0.0210581
0.0207073
0.0203624
0.0200235
0.0196906
0.0193637
0.0190428
0.0187278
0.0184188
0.0181157
0.0178184
0.0175269
0.0172412
0.0169612
0.0166869
0.0164181
0.0161548
0.0158969
0.0156442
0.0153968
0.0151545
0.0149172
0.0146848
0.0144572
0.0142344
0.0140163
0.0138027
0.0135935
0.0133888
0.0131883
0.0129922
0.0128002
0.0126124
0.0124286
0.0122487
0.0120726
0.0119002
0.0117316
0.0115666
0.0114051
0.0112472
0.0110926
0.0109414
0.0107935
0.010649
0.0105077
0.0103697
0.010235
0.0101038
0.00997635
0.009853
0.00973445
0.00962229
0.00951649
0.00943468
0.00931003
0.000487552
0.00281487
0.00425634
0.0051899
0.00590674
0.0065112
0.00705369
0.0075625
0.00805475
0.00854106
0.00902813
0.00952039
0.010021
0.0105324
0.0110568
0.0115958
0.0121508
0.0127229
0.0133126
0.0139203
0.0145458
0.0151888
0.0158489
0.0165254
0.0172177
0.0179249
0.0186461
0.0193804
0.0201269
0.0208845
0.0216522
0.0224288
0.023213
0.0240037
0.0247995
0.0255988
0.0264002
0.0272022
0.0280029
0.0288008
0.029594
0.0303806
0.0311589
0.031927
0.0326828
0.0334246
0.0341503
0.0348582
0.0355463
0.036213
0.0368565
0.0374753
0.0380678
0.0386327
0.0391686
0.0396745
0.0401493
0.0405921
0.0410021
0.0413788
0.0417216
0.0420302
0.0423044
0.0425441
0.0427493
0.0429203
0.0430572
0.0431605
0.0432306
0.0432666
0.0432715
0.0432452
0.0431884
0.0431022
0.0429873
0.0428448
0.0426757
0.0424811
0.0422621
0.0420199
0.0417555
0.0414701
0.0411648
0.040841
0.0404996
0.0401419
0.0397691
0.0393822
0.0389824
0.0385708
0.0381483
0.0377161
0.0372751
0.0368263
0.0363706
0.0359089
0.0354421
0.034971
0.0344965
0.0340192
0.03354
0.0330596
0.0325786
0.0320976
0.0316173
0.0311381
0.0306608
0.0301856
0.0297131
0.0292437
0.0287778
0.0283158
0.027858
0.0274047
0.0269562
0.0265127
0.0260745
0.0256418
0.0252148
0.0247935
0.0243783
0.0239691
0.0235662
0.0231695
0.0227792
0.0223953
0.0220179
0.021647
0.0212826
0.0209246
0.0205731
0.0202281
0.0198895
0.0195573
0.0192315
0.0189118
0.0185985
0.0182913
0.0179901
0.017695
0.0174058
0.0171225
0.0168449
0.0165729
0.0163064
0.0160454
0.0157897
0.0155393
0.015294
0.0150538
0.0148185
0.0145881
0.0143624
0.0141414
0.013925
0.0137132
0.0135058
0.0133027
0.0131039
0.0129093
0.0127187
0.0125323
0.0123499
0.0121714
0.0119967
0.0118258
0.0116586
0.0114951
0.0113353
0.0111792
0.0110267
0.010878
0.0107332
0.0105926
0.0104566
0.010326
0.010202
0.0100854
0.00998826
0.00985932
0.000580872
0.00323563
0.00481138
0.00582002
0.00658761
0.00722813
0.00779629
0.00832362
0.00882992
0.00932819
0.00982714
0.0103327
0.0108488
0.0113785
0.0119239
0.0124865
0.0130675
0.0136677
0.0142873
0.0149267
0.0155857
0.016264
0.0169613
0.0176769
0.0184104
0.0191609
0.0199277
0.0207099
0.0215065
0.0223166
0.023139
0.0239724
0.0248155
0.0256669
0.0265251
0.0273883
0.0282548
0.0291228
0.0299903
0.0308554
0.0317158
0.0325696
0.0334146
0.0342485
0.0350691
0.0358744
0.036662
0.03743
0.0381762
0.0388987
0.0395957
0.0402653
0.040906
0.0415162
0.0420947
0.04264
0.0431512
0.0436274
0.0440677
0.0444714
0.0448383
0.0451678
0.0454598
0.0457142
0.0459312
0.046111
0.0462539
0.0463603
0.0464306
0.0464648
0.0464651
0.0464317
0.0463654
0.0462673
0.0461384
0.0459797
0.0457926
0.045578
0.0453372
0.0450715
0.0447821
0.0444702
0.0441372
0.0437842
0.0434126
0.0430236
0.0426184
0.0421983
0.0417645
0.0413182
0.0408604
0.0403923
0.0399149
0.0394292
0.0389364
0.0384373
0.0379328
0.0374239
0.0369115
0.0363963
0.0358791
0.0353607
0.0348419
0.0343232
0.0338053
0.0332888
0.0327743
0.0322623
0.0317533
0.0312476
0.0307458
0.0302482
0.0297552
0.0292671
0.0287842
0.0283068
0.0278351
0.0273693
0.0269096
0.0264562
0.0260092
0.0255688
0.025135
0.024708
0.0242879
0.0238746
0.0234682
0.0230688
0.0226764
0.0222909
0.0219123
0.0215407
0.0211759
0.0208179
0.0204667
0.0201222
0.0197844
0.0194532
0.0191284
0.0188101
0.0184981
0.0181923
0.0178927
0.0175991
0.0173114
0.0170295
0.0167534
0.0164828
0.0162178
0.0159582
0.0157039
0.0154547
0.0152107
0.0149717
0.0147376
0.0145084
0.0142839
0.0140641
0.0138488
0.013638
0.0134315
0.0132295
0.0130317
0.0128381
0.0126486
0.0124632
0.0122819
0.0121046
0.0119313
0.011762
0.0115967
0.0114356
0.0112787
0.0111264
0.010979
0.0108374
0.0107026
0.0105756
0.0104642
0.0103317
0.000651762
0.0035529
0.00522366
0.00628756
0.00709429
0.00776439
0.00835511
0.00889994
0.00942039
0.00993103
0.010442
0.0109603
0.0114908
0.0120368
0.0126008
0.0131843
0.0137884
0.0144138
0.0150608
0.0157295
0.0164201
0.0171321
0.0178654
0.0186195
0.0193938
0.0201877
0.0210005
0.0218313
0.0226791
0.0235428
0.0244211
0.0253127
0.026216
0.0271295
0.0280512
0.0289793
0.0299118
0.0308464
0.031781
0.0327132
0.0336406
0.0345608
0.0354713
0.0363696
0.0372532
0.0381197
0.0389667
0.0397918
0.040593
0.0413679
0.0421146
0.0428313
0.0435161
0.0441676
0.0447843
0.0453648
0.0459082
0.0464134
0.0468798
0.0473066
0.0476934
0.0480399
0.0483461
0.0486118
0.0488373
0.0490229
0.0491689
0.0492758
0.0493443
0.0493747
0.0493687
0.0493266
0.0492496
0.0491387
0.0489951
0.04882
0.0486146
0.0483801
0.048118
0.0478295
0.047516
0.0471788
0.0468192
0.0464387
0.0460385
0.04562
0.0451846
0.0447335
0.0442681
0.0437894
0.0432989
0.0427975
0.0422865
0.0417669
0.0412399
0.0407064
0.0401673
0.0396238
0.0390766
0.0385267
0.0379748
0.0374218
0.0368684
0.0363154
0.0357633
0.0352128
0.0346646
0.034119
0.0335768
0.0330382
0.0325039
0.0319741
0.0314492
0.0309296
0.0304156
0.0299075
0.0294055
0.0289098
0.0284207
0.0279382
0.0274627
0.0269941
0.0265326
0.0260784
0.0256313
0.0251917
0.0247593
0.0243344
0.0239168
0.0235066
0.0231038
0.0227082
0.02232
0.021939
0.0215652
0.0211985
0.0208388
0.0204861
0.0201402
0.0198012
0.0194688
0.0191431
0.0188238
0.0185109
0.0182043
0.0179038
0.0176094
0.0173209
0.0170383
0.0167614
0.0164902
0.0162244
0.0159641
0.0157091
0.0154593
0.0152146
0.0149749
0.0147402
0.0145103
0.0142851
0.0140646
0.0138487
0.0136374
0.0134304
0.0132279
0.0130296
0.0128357
0.0126461
0.0124607
0.0122795
0.0121026
0.0119303
0.0117625
0.0115996
0.0114419
0.0112902
0.0111454
0.0110085
0.0108843
0.0107461
0.0006997
0.00377298
0.00550471
0.00660655
0.00744232
0.00813652
0.00874767
0.00931005
0.00984598
0.0103709
0.0108957
0.0114282
0.0119739
0.0125368
0.0131193
0.0137234
0.0143501
0.0150002
0.0156742
0.0163723
0.0170946
0.017841
0.0186112
0.0194051
0.020222
0.0210613
0.0219223
0.022804
0.0237054
0.0246252
0.0255621
0.0265143
0.0274801
0.0284577
0.0294448
0.0304393
0.0314388
0.0324407
0.0334425
0.0344415
0.035435
0.0364201
0.0373942
0.0383545
0.0392981
0.0402225
0.0411251
0.0420033
0.0428547
0.0436772
0.0444686
0.045227
0.0459506
0.0466377
0.047287
0.0478971
0.048467
0.0489958
0.0494827
0.0499272
0.050329
0.0506877
0.0510034
0.051276
0.051506
0.0516935
0.0518392
0.0519436
0.0520074
0.0520315
0.0520169
0.0519645
0.0518751
0.0517502
0.051591
0.0513988
0.0511749
0.0509207
0.0506375
0.0503268
0.04999
0.0496284
0.0492436
0.048837
0.04841
0.0479639
0.0475002
0.0470203
0.0465255
0.046017
0.0454962
0.0449643
0.0444224
0.0438718
0.0433134
0.0427484
0.0421779
0.0416027
0.041024
0.0404424
0.0398591
0.0392746
0.0386899
0.0381057
0.0375227
0.0369414
0.0363626
0.0357868
0.0352145
0.0346462
0.0340824
0.0335235
0.0329699
0.0324219
0.0318799
0.0313441
0.0308148
0.0302922
0.0297765
0.0292679
0.0287666
0.0282727
0.0277863
0.0273075
0.0268364
0.026373
0.0259173
0.0254694
0.0250293
0.0245969
0.0241723
0.0237553
0.0233461
0.0229444
0.0225503
0.0221636
0.0217844
0.0214124
0.0210477
0.0206901
0.0203395
0.0199958
0.0196589
0.0193287
0.0190051
0.018688
0.0183773
0.0180728
0.0177744
0.0174821
0.0171956
0.016915
0.01664
0.0163707
0.0161068
0.0158482
0.015595
0.0153469
0.015104
0.014866
0.0146329
0.0144047
0.0141812
0.0139624
0.0137482
0.0135385
0.0133334
0.0131327
0.0129365
0.0127448
0.0125576
0.0123751
0.0121974
0.0120247
0.0118576
0.0116966
0.0115425
0.0113962
0.0112606
0.0111159
0.000726718
0.00390816
0.00567242
0.00679746
0.0076534
0.00836669
0.00899621
0.00957614
0.010129
0.0106704
0.0112118
0.0117612
0.0123247
0.0129064
0.0135092
0.0141354
0.0147863
0.015463
0.0161661
0.0168958
0.0176525
0.0184362
0.0192467
0.0200838
0.0209471
0.0218358
0.0227491
0.023686
0.0246451
0.0256251
0.0266242
0.0276405
0.028672
0.0297163
0.0307709
0.0318332
0.0329005
0.0339699
0.0350383
0.0361028
0.0371603
0.0382076
0.0392419
0.0402599
0.0412589
0.0422359
0.0431882
0.0441131
0.0450083
0.0458714
0.0467003
0.047493
0.0482478
0.048963
0.0496374
0.0502696
0.0508587
0.0514039
0.0519045
0.0523601
0.0527703
0.0531351
0.0534545
0.0537287
0.0539581
0.054143
0.0542842
0.0543823
0.0544381
0.0544525
0.0544272
0.0543619
0.0542583
0.0541179
0.053942
0.053732
0.0534893
0.0532152
0.0529112
0.0525788
0.0522195
0.0518347
0.051426
0.0509948
0.0505427
0.0500709
0.0495811
0.0490747
0.0485529
0.0480171
0.0474688
0.046909
0.0463391
0.0457603
0.0451736
0.0445803
0.0439813
0.0433777
0.0427705
0.0421606
0.041549
0.0409363
0.0403236
0.0397114
0.0391007
0.0384919
0.0378857
0.0372828
0.0366837
0.0360888
0.0354987
0.0349138
0.0343345
0.0337611
0.033194
0.0326335
0.0320798
0.0315331
0.0309938
0.0304619
0.0299376
0.029421
0.0289124
0.0284116
0.0279189
0.0274343
0.0269578
0.0264894
0.0260291
0.0255769
0.0251328
0.0246968
0.0242687
0.0238486
0.0234363
0.0230318
0.022635
0.0222459
0.0218642
0.02149
0.0211231
0.0207634
0.0204108
0.0200652
0.0197264
0.0193944
0.019069
0.0187502
0.0184377
0.0181315
0.0178314
0.0175375
0.0172494
0.0169672
0.0166906
0.0164197
0.0161543
0.0158943
0.0156396
0.0153902
0.0151458
0.0149065
0.0146722
0.0144427
0.0142181
0.0139982
0.013783
0.0135725
0.0133667
0.0131655
0.0129691
0.0127775
0.0125909
0.0124095
0.0122338
0.0120642
0.0119014
0.0117463
0.0116005
0.011449
0.000735469
0.00397151
0.00574526
0.00688166
0.00775065
0.00847895
0.00912528
0.00972324
0.0102947
0.0108553
0.0114161
0.0119857
0.0125702
0.0131744
0.0138014
0.0144538
0.0151333
0.015841
0.0165778
0.0173443
0.0181408
0.0189675
0.0198245
0.0207112
0.0216273
0.0225719
0.023544
0.0245423
0.0255652
0.026611
0.0276774
0.0287623
0.029863
0.0309768
0.0321009
0.033232
0.034367
0.0355027
0.0366356
0.0377625
0.0388798
0.0399843
0.0410727
0.0421419
0.0431887
0.0442102
0.0452035
0.0461662
0.0470956
0.0479896
0.0488461
0.0496631
0.0504391
0.0511725
0.0518622
0.0525069
0.0531059
0.0536584
0.054164
0.0546223
0.0550332
0.0553966
0.0557128
0.0559821
0.0562049
0.0563817
0.0565134
0.0566007
0.0566446
0.0566459
0.0566067
0.0565258
0.0564059
0.0562484
0.0560546
0.055826
0.0555639
0.0552698
0.0549453
0.0545918
0.0542109
0.053804
0.0533728
0.0529187
0.0524432
0.0519479
0.0514342
0.0509036
0.0503574
0.0497971
0.0492239
0.0486393
0.0480444
0.0474405
0.0468287
0.0462102
0.0455861
0.0449574
0.0443251
0.0436902
0.0430536
0.0424161
0.0417787
0.041142
0.0405068
0.0398738
0.0392436
0.0386169
0.0379941
0.0373759
0.0367627
0.0361549
0.035553
0.0349573
0.0343681
0.0337858
0.0332106
0.0326428
0.0320825
0.0315301
0.0309855
0.030449
0.0299207
0.0294006
0.0288889
0.0283855
0.0278905
0.027404
0.0269259
0.0264562
0.0259949
0.0255419
0.0250972
0.0246607
0.0242323
0.023812
0.0233997
0.0229953
0.0225986
0.0222097
0.0218283
0.0214543
0.0210877
0.0207284
0.0203761
0.0200308
0.0196924
0.0193607
0.0190357
0.0187171
0.0184049
0.018099
0.0177993
0.0175055
0.0172177
0.0169358
0.0166595
0.0163888
0.0161236
0.0158639
0.0156094
0.0153602
0.0151161
0.0148771
0.0146431
0.0144141
0.0141899
0.0139706
0.0137561
0.0135465
0.0133418
0.0131421
0.0129475
0.0127583
0.0125748
0.0123975
0.0122268
0.0120637
0.0119087
0.0117505
0.000728931
0.00396967
0.00573764
0.00687678
0.00775436
0.00849685
0.00916073
0.00977826
0.0103704
0.0109527
0.0115368
0.0121312
0.0127422
0.0133748
0.0140326
0.0147183
0.0154336
0.0161802
0.0169591
0.0177712
0.0186168
0.0194963
0.0204095
0.0213559
0.0223347
0.0233449
0.0243851
0.0254536
0.0265484
0.027667
0.0288069
0.0299652
0.0311388
0.0323245
0.0335188
0.0347181
0.0359188
0.0371173
0.0383098
0.0394927
0.0406624
0.0418155
0.0429485
0.0440582
0.0451416
0.0461957
0.0472177
0.0482053
0.049156
0.0500677
0.0509386
0.0517669
0.0525512
0.0532902
0.0539828
0.0546281
0.0552254
0.0557743
0.0562743
0.0567254
0.0571276
0.0574809
0.0577858
0.0580426
0.0582519
0.0584144
0.0585309
0.0586023
0.0586295
0.0586144
0.0585573
0.0584581
0.0583196
0.0581432
0.0579301
0.0576819
0.0574
0.0570859
0.056741
0.056367
0.0559654
0.0555377
0.0550855
0.0546102
0.0541135
0.0535968
0.0530616
0.0525094
0.0519415
0.0513595
0.0507646
0.0501582
0.0495415
0.0489157
0.0482822
0.0476419
0.0469961
0.0463457
0.0456918
0.0450354
0.0443774
0.0437186
0.04306
0.0424022
0.0417461
0.0410923
0.0404415
0.0397943
0.0391514
0.0385131
0.03788
0.0372526
0.0366312
0.0360163
0.0354081
0.034807
0.0342133
0.0336272
0.0330489
0.0324787
0.0319166
0.0313628
0.0308175
0.0302806
0.0297524
0.0292327
0.0287218
0.0282195
0.0277258
0.0272409
0.0267645
0.0262967
0.0258375
0.0253867
0.0249443
0.0245102
0.0240842
0.0236664
0.0232566
0.0228547
0.0224605
0.0220741
0.0216952
0.0213237
0.0209595
0.0206025
0.0202526
0.0199096
0.0195734
0.0192439
0.018921
0.0186045
0.0182944
0.0179905
0.0176927
0.0174008
0.0171149
0.0168347
0.0165602
0.0162913
0.0160279
0.0157698
0.0155171
0.0152696
0.0150273
0.01479
0.0145578
0.0143306
0.0141085
0.0138913
0.0136792
0.0134722
0.0132704
0.0130742
0.0128837
0.0126993
0.0125216
0.0123512
0.0121882
0.0120238
0.000716244
0.00394476
0.0056955
0.00683164
0.00771304
0.00846308
0.00913893
0.00977308
0.0103874
0.0109954
0.0116082
0.0122343
0.0128801
0.0135505
0.0142493
0.0149791
0.0157424
0.0165408
0.0173755
0.0182475
0.0191571
0.0201043
0.0210887
0.0221095
0.0231654
0.0242549
0.0253758
0.0265258
0.0277022
0.0289019
0.0301215
0.0313576
0.0326065
0.0338641
0.0351267
0.0363902
0.0376506
0.038904
0.0401465
0.0413744
0.042584
0.0437719
0.0449347
0.0460694
0.0471731
0.048243
0.0492768
0.0502721
0.0512268
0.0521392
0.0530077
0.0538308
0.0546073
0.0553363
0.0560168
0.0566483
0.0572303
0.0577626
0.0582449
0.0586773
0.05906
0.0593933
0.0596776
0.0599135
0.0601016
0.0602428
0.0603379
0.0603878
0.0603935
0.060358
0.0602786
0.0601582
0.0599987
0.0598014
0.0595677
0.059299
0.0589967
0.0586624
0.0582976
0.0579038
0.0574825
0.0570353
0.0565636
0.0560691
0.0555532
0.0550175
0.0544633
0.0538922
0.0533056
0.0527049
0.0520914
0.0514664
0.0508312
0.0501871
0.0495353
0.0488768
0.0482128
0.0475444
0.0468726
0.0461983
0.0455225
0.0448461
0.0441699
0.0434946
0.0428212
0.0421502
0.0414823
0.0408182
0.0401584
0.0395035
0.0388539
0.0382101
0.0375726
0.0369416
0.0363176
0.0357008
0.0350916
0.0344902
0.0338968
0.0333116
0.0327348
0.0321664
0.0316067
0.0310557
0.0305135
0.0299801
0.0294555
0.0289398
0.028433
0.027935
0.0274459
0.0269655
0.0264938
0.0260307
0.0255762
0.0251302
0.0246926
0.0242632
0.023842
0.0234289
0.0230238
0.0226265
0.0222369
0.0218549
0.0214803
0.0211131
0.0207532
0.0204003
0.0200544
0.0197154
0.0193831
0.0190574
0.0187381
0.0184253
0.0181187
0.0178182
0.0175237
0.0172352
0.0169525
0.0166755
0.0164041
0.0161383
0.0158779
0.0156229
0.0153731
0.0151286
0.0148893
0.0146551
0.0144261
0.0142022
0.0139835
0.01377
0.0135618
0.0133593
0.0131625
0.0129719
0.0127878
0.0126108
0.0124407
0.0122706
0.000695113
0.00388264
0.00560713
0.00673671
0.00762265
0.00838556
0.00908102
0.00974027
0.0103831
0.0110236
0.011674
0.0123428
0.0130361
0.0137588
0.0145148
0.0153071
0.0161379
0.0170089
0.0179213
0.0188756
0.0198717
0.0209092
0.0219867
0.0231028
0.0242553
0.0254416
0.0266586
0.0279031
0.0291713
0.0304592
0.0317628
0.0330777
0.0343997
0.0357244
0.0370475
0.0383648
0.0396721
0.0409656
0.0422413
0.0434958
0.0447255
0.0459275
0.0470986
0.0482363
0.0493379
0.0504012
0.0514242
0.0524051
0.0533421
0.0542339
0.0550793
0.0558772
0.0566268
0.0573274
0.0579785
0.0585796
0.0591307
0.0596317
0.0600825
0.0604835
0.0608349
0.0611372
0.0613909
0.0615968
0.0617555
0.0618678
0.0619347
0.0619572
0.0619375
0.0618751
0.0617702
0.0616255
0.0614424
0.0612223
0.0609664
0.0606762
0.0603531
0.0599986
0.0596141
0.0592012
0.0587613
0.0582959
0.0578066
0.0572947
0.0567619
0.0562095
0.055639
0.0550519