/*--------------------------------*- C++ -*----------------------------------*\
  =========                 |
  \\      /  F ield         | OpenFOAM: The Open Source CFD Toolbox
   \\    /   O peration     | Website:  https://openfoam.org
    \\  /    A nd           | Version:  6
     \\/     M anipulation  |
\*---------------------------------------------------------------------------*/
FoamFile
{
    version     2.0;
    format      ascii;
    class       volScalarField;
    location    "235";
    object      nut;
}
// * * * * * * * * * * * * * * * * * * * * * * * * * * * * * * * * * * * * * //

dimensions      [0 2 -1 0 0 0 0];

internalField   nonuniform List<scalar> 
12225
(
2.54152e-05
9.2242e-06
6.8167e-06
5.73537e-06
5.04179e-06
4.53281e-06
4.13526e-06
3.8131e-06
3.54562e-06
3.31971e-06
3.12658e-06
2.96007e-06
2.81588e-06
2.69116e-06
2.58434e-06
2.49754e-06
2.43288e-06
2.47082e-06
0.00014546
9.67945e-05
8.71148e-05
8.07454e-05
7.60276e-05
7.22429e-05
6.90725e-05
6.63457e-05
6.39599e-05
6.18481e-05
5.99644e-05
5.82768e-05
5.67638e-05
5.54128e-05
5.42292e-05
5.32273e-05
5.25531e-05
5.24408e-05
0.000311823
0.000216533
0.000196517
0.000184344
0.000175201
0.000167703
0.000161281
0.000155647
0.000150629
0.000146118
0.000142037
0.000138336
0.000134982
0.00013196
0.000129297
0.000127035
0.000125578
0.000124726
0.000468998
0.000336432
0.00030353
0.000285358
0.000272213
0.000261526
0.000252365
0.000244298
0.000237079
0.000230557
0.00022463
0.000219232
0.000214319
0.000209874
0.000205931
0.00020256
0.000200167
0.000198659
0.000595827
0.000447759
0.000403274
0.000379338
0.000362568
0.000349164
0.000337752
0.000327722
0.000318744
0.000310619
0.000303221
0.000296466
0.000290301
0.000284703
0.0002797
0.00027537
0.000272022
0.000269701
0.000689194
0.000546058
0.000494045
0.000465261
0.000445346
0.000429649
0.000416402
0.000404809
0.000394448
0.000385071
0.000376524
0.000368706
0.000361554
0.000355035
0.000349167
0.000344015
0.000339785
0.000336567
0.000753368
0.000629254
0.000574685
0.000542639
0.000520279
0.000502758
0.000488099
0.000475308
0.000463886
0.000453546
0.000444114
0.000435473
0.000427554
0.000420316
0.000413755
0.000407916
0.000402922
0.000398845
0.00079437
0.000697544
0.000644352
0.000611046
0.000587247
0.00056857
0.000552911
0.00053926
0.000527075
0.000516043
0.00050597
0.000496728
0.000488235
0.000480443
0.000473336
0.00046694
0.000461318
0.000456506
0.000820267
0.000749691
0.000702434
0.000670105
0.000646098
0.000626918
0.000610737
0.000596591
0.000583944
0.000572477
0.00056199
0.000552351
0.000543472
0.000535297
0.000527803
0.000520993
0.000514892
0.000509501
0.000835852
0.000787719
0.000748951
0.000719594
0.000696611
0.000677722
0.000661555
0.000647312
0.000634516
0.000622875
0.000612199
0.000602359
0.000593268
0.00058487
0.000577133
0.000570045
0.000563605
0.000557794
0.000844688
0.000814037
0.000784512
0.000759556
0.000738707
0.000720904
0.000705324
0.00069141
0.000678802
0.00066726
0.000656625
0.000646783
0.000637656
0.000629192
0.000621354
0.000614124
0.000607483
0.000601403
0.000848915
0.000829699
0.000808058
0.000787775
0.000769646
0.000753493
0.000738965
0.000725755
0.000713637
0.000702449
0.000692069
0.000682413
0.000673417
0.000665036
0.000657238
0.00065
0.000643298
0.000637101
0.000851041
0.000839737
0.000824836
0.000809223
0.000794171
0.000780075
0.000766965
0.000754766
0.000743397
0.000732779
0.000722839
0.000713526
0.000704798
0.000696623
0.000688975
0.000681831
0.00067517
0.000668958
0.000851866
0.000845907
0.000836813
0.00082602
0.000814623
0.00080318
0.000792024
0.000781323
0.000771119
0.000761421
0.000752215
0.000743495
0.000735251
0.000727467
0.000720129
0.000713222
0.000706728
0.000700622
0.000851774
0.000848523
0.000843473
0.000836812
0.000829079
0.000820744
0.000812118
0.000803413
0.0007948
0.000786393
0.00077826
0.00077044
0.000762948
0.000755789
0.000748963
0.00074247
0.000736304
0.000730453
0.000851216
0.000848548
0.000845513
0.000841633
0.000836845
0.00083135
0.000825336
0.000818959
0.000812364
0.000805663
0.000798969
0.000792352
0.000785865
0.000779548
0.000773433
0.000767536
0.000761865
0.000756424
0.000850591
0.000847338
0.000844651
0.00084202
0.000839081
0.000835669
0.000831762
0.000827415
0.000822711
0.000817737
0.000812572
0.000807288
0.000801953
0.000796622
0.000791342
0.000786149
0.00078107
0.000776128
0.000850207
0.0008463
0.000843294
0.000840833
0.000838528
0.000836097
0.000833367
0.000830266
0.000826776
0.000822937
0.000818802
0.00081444
0.000809917
0.000805294
0.000800623
0.000795947
0.0007913
0.000786707
0.000850316
0.000846568
0.000843619
0.000841105
0.000838651
0.00083601
0.000833037
0.000829681
0.000825945
0.000821872
0.000817528
0.000812977
0.000808281
0.000803496
0.000798672
0.000793851
0.000789071
0.000784364
0.000851005
0.000848151
0.000845278
0.000841915
0.000837856
0.000833132
0.000827898
0.000822281
0.000816396
0.00081034
0.000804185
0.000797993
0.000791827
0.000785736
0.000779755
0.000773912
0.000768227
0.000762718
0.000851735
0.000848335
0.000843222
0.000836598
0.000828969
0.000820791
0.000812315
0.000803716
0.00079516
0.000786754
0.000778565
0.000770618
0.000762941
0.000755552
0.000748457
0.000741652
0.000735138
0.000728913
0.000851475
0.000842983
0.00083122
0.000818197
0.000805091
0.000792337
0.000780107
0.00076848
0.000757484
0.000747087
0.000737259
0.000727979
0.000719198
0.000710877
0.000702984
0.000695497
0.000688398
0.000681673
0.00084766
0.000825351
0.000801648
0.000780021
0.000760917
0.000744039
0.000728962
0.000715326
0.000702821
0.000691262
0.000680516
0.000670489
0.0006611
0.000652285
0.000643991
0.000636178
0.000628814
0.000621877
0.000835157
0.000786776
0.0007479
0.000718263
0.000695036
0.00067592
0.000659541
0.000645092
0.000632078
0.000620194
0.000609242
0.000599088
0.000589632
0.000580796
0.000572518
0.00056475
0.000557454
0.00055061
0.000804783
0.000718418
0.000666712
0.000633029
0.000608647
0.000589474
0.000573371
0.000559305
0.000546714
0.000535268
0.000524758
0.000515042
0.000506019
0.00049761
0.00048975
0.000482392
0.000475498
0.000469053
0.000742524
0.000614054
0.000558873
0.000526716
0.000504412
0.000486962
0.000472373
0.000459654
0.000448274
0.000437937
0.000428457
0.000419708
0.000411598
0.000404055
0.000397026
0.000390459
0.00038432
0.000378602
0.000627187
0.000477839
0.00042926
0.000403197
0.000385213
0.000370965
0.000358886
0.000348281
0.000338782
0.000330163
0.000322274
0.000315011
0.000308295
0.000302062
0.000296262
0.000290852
0.000285805
0.000281129
0.00044925
0.000317379
0.000284627
0.000266898
0.000254195
0.000243907
0.000235107
0.000227368
0.000220451
0.000214198
0.000208501
0.000203279
0.000198472
0.00019403
0.000189914
0.000186088
0.000182531
0.000179258
0.000229945
0.000151441
0.000134981
0.000125212
0.000118081
0.00011235
0.000107521
0.000103347
9.96774e-05
9.64108e-05
9.34762e-05
9.08213e-05
8.84057e-05
8.61977e-05
8.41718e-05
8.23051e-05
8.05832e-05
7.90152e-05
5.25358e-05
2.33973e-05
1.71693e-05
1.43746e-05
1.26152e-05
1.13298e-05
1.03211e-05
9.49817e-06
8.81005e-06
8.22439e-06
7.71929e-06
7.27912e-06
6.89225e-06
6.54983e-06
6.24488e-06
5.97205e-06
5.72553e-06
5.50741e-06
3.06457e-09
1.06304e-07
2.1775e-07
3.23871e-07
4.15079e-07
4.96584e-07
5.79488e-07
6.62832e-07
7.49227e-07
8.41042e-07
9.3971e-07
1.04624e-06
1.16187e-06
1.28829e-06
1.42751e-06
1.5817e-06
1.75286e-06
1.94268e-06
2.15229e-06
2.38238e-06
2.63326e-06
2.90497e-06
3.19675e-06
3.50762e-06
3.83631e-06
4.18169e-06
4.54209e-06
4.91475e-06
5.29807e-06
5.6905e-06
6.09033e-06
6.49623e-06
6.90663e-06
7.32035e-06
7.73591e-06
8.15224e-06
8.56791e-06
8.98192e-06
9.39282e-06
9.79966e-06
1.02009e-05
1.05957e-05
1.09826e-05
1.13608e-05
1.17292e-05
1.20881e-05
1.24382e-05
1.27848e-05
1.31144e-05
1.34321e-05
1.37357e-05
1.40255e-05
1.43005e-05
1.45605e-05
1.48047e-05
1.5033e-05
1.52447e-05
1.54397e-05
1.56175e-05
1.57781e-05
1.59211e-05
1.60467e-05
1.61546e-05
1.62451e-05
1.63181e-05
1.63739e-05
1.64127e-05
1.64348e-05
1.644e-05
1.64263e-05
1.64001e-05
1.63584e-05
1.63015e-05
1.623e-05
1.61445e-05
1.60455e-05
1.59337e-05
1.58096e-05
1.56738e-05
1.55271e-05
1.537e-05
1.52031e-05
1.50272e-05
1.48428e-05
1.46508e-05
1.44516e-05
1.42459e-05
1.40343e-05
1.38172e-05
1.3595e-05
1.33695e-05
1.31409e-05
1.29088e-05
1.26739e-05
1.24368e-05
1.2198e-05
1.19582e-05
1.17178e-05
1.14771e-05
1.12367e-05
1.0997e-05
1.07582e-05
1.05208e-05
1.0285e-05
1.00512e-05
9.8196e-06
9.59055e-06
9.36422e-06
9.14087e-06
8.92063e-06
8.70373e-06
8.49028e-06
8.28045e-06
8.07434e-06
7.87209e-06
7.67375e-06
7.4795e-06
7.2894e-06
7.10341e-06
6.92146e-06
6.7437e-06
6.57017e-06
6.40088e-06
6.23578e-06
6.07485e-06
5.91804e-06
5.76533e-06
5.61663e-06
5.47193e-06
5.33115e-06
5.19423e-06
5.06107e-06
4.93163e-06
4.80583e-06
4.68361e-06
4.56489e-06
4.44966e-06
4.33783e-06
4.22932e-06
4.12401e-06
4.02178e-06
3.92254e-06
3.8262e-06
3.73267e-06
3.64171e-06
3.55386e-06
3.46853e-06
3.38561e-06
3.30506e-06
3.22685e-06
3.15092e-06
3.07719e-06
3.00559e-06
2.93603e-06
2.86844e-06
2.80276e-06
2.73895e-06
2.67693e-06
2.61664e-06
2.55802e-06
2.50101e-06
2.44553e-06
2.39154e-06
2.33898e-06
2.2878e-06
2.23793e-06
2.1893e-06
2.14185e-06
2.09551e-06
2.05019e-06
2.0058e-06
1.9622e-06
1.91934e-06
1.8768e-06
1.83493e-06
1.79214e-06
1.75042e-06
1.70475e-06
1.66276e-06
1.50531e-06
1.91239e-08
2.06389e-06
7.51064e-06
1.23996e-05
1.56804e-05
1.77527e-05
1.90459e-05
2.00043e-05
2.08574e-05
2.17039e-05
2.25762e-05
2.34835e-05
2.4437e-05
2.54524e-05
2.65464e-05
2.7735e-05
2.90315e-05
3.04443e-05
3.19761e-05
3.36228e-05
3.53834e-05
3.72754e-05
3.92959e-05
4.14382e-05
4.36941e-05
4.60544e-05
4.85093e-05
5.10487e-05
5.36611e-05
5.6335e-05
5.90591e-05
6.18225e-05
6.46145e-05
6.74251e-05
7.02449e-05
7.3065e-05
7.58771e-05
7.86734e-05
8.14464e-05
8.41886e-05
8.68925e-05
8.95495e-05
9.21498e-05
9.4681e-05
9.71262e-05
9.94598e-05
0.000101637
0.000103591
0.000105464
0.000107264
0.000108992
0.000110646
0.000112224
0.000113724
0.000115146
0.000116486
0.000117744
0.000118919
0.000120009
0.000121013
0.000121932
0.000122765
0.000123511
0.000124171
0.000124747
0.000125238
0.000125647
0.000125976
0.000126229
0.000126371
0.000126444
0.000126453
0.000126384
0.000126241
0.000126028
0.000125747
0.000125401
0.000124992
0.000124522
0.000123994
0.000123411
0.000122775
0.000122088
0.000121354
0.000120575
0.000119754
0.000118893
0.000117995
0.000117061
0.000116094
0.000115098
0.000114075
0.000113026
0.000111952
0.000110857
0.000109743
0.000108611
0.000107465
0.000106305
0.000105135
0.000103955
0.000102767
0.000101573
0.000100374
9.91725e-05
9.7969e-05
9.67649e-05
9.55617e-05
9.43604e-05
9.3162e-05
9.19676e-05
9.0778e-05
8.95942e-05
8.84171e-05
8.72475e-05
8.60861e-05
8.49325e-05
8.37874e-05
8.26514e-05
8.15246e-05
8.04095e-05
7.93069e-05
7.82162e-05
7.71377e-05
7.60715e-05
7.50178e-05
7.39769e-05
7.29488e-05
7.19337e-05
7.09316e-05
6.9942e-05
6.89653e-05
6.80015e-05
6.70507e-05
6.6113e-05
6.51889e-05
6.42789e-05
6.33826e-05
6.24994e-05
6.16288e-05
6.07705e-05
5.99244e-05
5.90905e-05
5.82679e-05
5.74595e-05
5.66489e-05
5.58448e-05
5.50518e-05
5.4271e-05
5.35027e-05
5.27467e-05
5.20027e-05
5.12702e-05
5.05491e-05
4.9839e-05
4.91401e-05
4.84522e-05
4.77752e-05
4.71087e-05
4.64524e-05
4.58058e-05
4.51687e-05
4.4541e-05
4.39221e-05
4.33118e-05
4.27094e-05
4.21141e-05
4.15252e-05
4.09417e-05
4.03621e-05
3.97847e-05
3.92068e-05
3.86255e-05
3.80338e-05
3.74312e-05
3.67861e-05
3.61279e-05
3.53394e-05
3.45105e-05
3.16843e-05
4.6002e-08
4.83816e-06
1.62995e-05
2.65726e-05
3.4092e-05
3.93888e-05
4.31518e-05
4.59769e-05
4.8294e-05
5.03793e-05
5.23963e-05
5.44399e-05
5.65684e-05
5.88234e-05
6.12376e-05
6.38389e-05
6.665e-05
6.96889e-05
7.29695e-05
7.65035e-05
8.03168e-05
8.43326e-05
8.85395e-05
9.29201e-05
9.7455e-05
0.000102124
0.000106906
0.000111781
0.000116728
0.000121727
0.000126761
0.000131813
0.000136868
0.000141911
0.000146929
0.000151911
0.000156846
0.000161724
0.000166534
0.000171265
0.000175909
0.000180453
0.000184885
0.000189191
0.000193357
0.000197361
0.000201192
0.000204855
0.000208382
0.000211781
0.00021505
0.000218188
0.000221192
0.000224057
0.000226783
0.000229365
0.000231802
0.000234091
0.000236231
0.00023822
0.000240058
0.000241744
0.000243279
0.000244662
0.000245894
0.000246977
0.000247913
0.000248704
0.000249375
0.000249857
0.000250206
0.000250426
0.000250512
0.000250466
0.000250293
0.000249995
0.000249577
0.000249043
0.000248396
0.000247641
0.000246782
0.000245823
0.000244766
0.000243617
0.000242381
0.000241063
0.000239665
0.000238193
0.000236649
0.000235037
0.000233362
0.000231627
0.000229837
0.000227995
0.000226105
0.000224171
0.000222197
0.000220187
0.000218142
0.000216068
0.000213967
0.000211842
0.000209696
0.000207531
0.000205351
0.000203158
0.000200954
0.000198741
0.000196522
0.000194299
0.000192073
0.000189846
0.00018762
0.000185397
0.000183178
0.000180966
0.00017876
0.000176563
0.000174374
0.000172195
0.000170027
0.000167872
0.000165731
0.000163603
0.00016149
0.000159392
0.00015731
0.000155244
0.000153194
0.000151162
0.000149144
0.000147142
0.000145159
0.000143193
0.000141245
0.000139319
0.000137414
0.00013553
0.000133665
0.000131818
0.00012999
0.00012818
0.000126388
0.000124615
0.000122862
0.000121121
0.000119395
0.000117686
0.000115996
0.000114326
0.000112675
0.000111043
0.00010943
0.000107835
0.00010626
0.000104706
0.000103171
0.000101657
0.000100162
9.86859e-05
9.72286e-05
9.57901e-05
9.43702e-05
9.29687e-05
9.15848e-05
9.02176e-05
8.88664e-05
8.753e-05
8.62071e-05
8.48956e-05
8.35929e-05
8.22953e-05
8.09988e-05
7.96925e-05
7.83806e-05
7.70007e-05
7.56838e-05
7.40827e-05
7.26135e-05
6.83556e-05
8.044e-08
7.49335e-06
2.36454e-05
3.78808e-05
4.84904e-05
5.62229e-05
6.19725e-05
6.6467e-05
7.02458e-05
7.36828e-05
7.70218e-05
8.04151e-05
8.39564e-05
8.77038e-05
9.16944e-05
9.59521e-05
0.000100491
0.000105315
0.000110424
0.000115805
0.000121415
0.000127278
0.000133338
0.000139562
0.000145928
0.000152409
0.000158982
0.000165623
0.00017231
0.000179022
0.000185741
0.00019245
0.000199133
0.000205777
0.000212368
0.000218894
0.000225346
0.000231711
0.000237981
0.000244142
0.000250186
0.000256101
0.000261874
0.000267494
0.000272946
0.000278225
0.000283332
0.000288269
0.000293044
0.000297655
0.000302102
0.000306381
0.000310486
0.000314415
0.000318163
0.000321727
0.000325104
0.000328291
0.000331286
0.000334086
0.000336691
0.0003391
0.000341312
0.000343328
0.000345147
0.000346772
0.000348203
0.000349465
0.000350546
0.000351392
0.00035206
0.000352556
0.000352875
0.000353019
0.000352994
0.000352803
0.000352451
0.000351943
0.000351283
0.000350477
0.00034953
0.000348448
0.000347241
0.000345913
0.000344466
0.000342903
0.000341229
0.00033945
0.00033757
0.000335593
0.000333525
0.00033137
0.000329134
0.000326821
0.000324438
0.000321988
0.000319477
0.000316908
0.000314287
0.000311619
0.000308906
0.000306153
0.000303364
0.000300543
0.000297694
0.000294819
0.000291922
0.000289007
0.000286076
0.000283132
0.000280177
0.000277213
0.000274244
0.000271272
0.000268301
0.000265331
0.000262365
0.000259404
0.000256449
0.000253503
0.000250567
0.000247641
0.000244728
0.000241829
0.000238944
0.000236074
0.00023322
0.000230383
0.000227563
0.000224762
0.000221979
0.000219214
0.000216468
0.000213743
0.000211037
0.000208353
0.000205691
0.000203052
0.000200433
0.000197833
0.000195253
0.000192693
0.000190154
0.000187637
0.000185141
0.000182664
0.000180207
0.000177772
0.000175358
0.000172966
0.000170596
0.000168248
0.00016592
0.000163615
0.000161332
0.000159074
0.00015684
0.000154629
0.000152441
0.000150276
0.000148133
0.000146014
0.000143917
0.000141843
0.00013979
0.000137758
0.000135746
0.000133753
0.000131776
0.000129813
0.000127862
0.000125917
0.000123973
0.000122018
0.000120052
0.000118017
0.000115991
0.000113725
0.000111652
0.000106468
1.17491e-07
9.80472e-06
2.97933e-05
4.72952e-05
6.06897e-05
7.07218e-05
7.84068e-05
8.45693e-05
8.98313e-05
9.46391e-05
9.92971e-05
0.000104003
0.000108879
0.000113997
0.000119396
0.000125094
0.000131094
0.000137388
0.000143961
0.000150789
0.000157843
0.000165078
0.000172489
0.000180054
0.000187735
0.000195503
0.000203332
0.000211199
0.000219084
0.000226967
0.000234832
0.000242664
0.000250448
0.000258173
0.000265827
0.000273401
0.000280885
0.000288265
0.00029553
0.000302669
0.000309674
0.000316534
0.000323241
0.000329786
0.000336163
0.000342368
0.0003484
0.000354255
0.000359932
0.000365428
0.00037074
0.000375861
0.000380789
0.000385517
0.000390041
0.000394358
0.000398463
0.000402353
0.000406026
0.000409479
0.00041271
0.000415717
0.000418501
0.000421061
0.000423396
0.000425507
0.000427404
0.000429113
0.000430585
0.000431801
0.000432818
0.000433629
0.000434233
0.000434635
0.000434837
0.000434845
0.000434663
0.000434297
0.00043375
0.000433029
0.000432139
0.000431085
0.000429872
0.000428507
0.000426996
0.000425345
0.000423559
0.000421644
0.000419605
0.000417448
0.000415178
0.000412801
0.000410323
0.00040775
0.000405086
0.000402339
0.000399513
0.000396613
0.000393646
0.000390615
0.000387527
0.000384385
0.000381195
0.00037796
0.000374686
0.000371375
0.000368033
0.000364664
0.000361269
0.000357855
0.000354424
0.000350986
0.000347538
0.000344081
0.000340619
0.000337153
0.000333685
0.000330218
0.000326754
0.000323294
0.000319841
0.000316397
0.000312962
0.000309538
0.000306127
0.000302729
0.000299345
0.000295977
0.000292626
0.000289292
0.000285977
0.00028268
0.000279402
0.000276144
0.000272906
0.000269689
0.000266493
0.000263319
0.000260166
0.000257034
0.000253923
0.000250832
0.000247762
0.000244713
0.000241686
0.000238679
0.000235689
0.00023272
0.000229772
0.000226845
0.00022394
0.000221057
0.000218194
0.000215352
0.000212535
0.000209745
0.00020698
0.000204238
0.00020152
0.000198824
0.000196151
0.000193503
0.000190879
0.000188279
0.000185701
0.000183144
0.000180608
0.000178092
0.000175593
0.000173109
0.000170635
0.000168167
0.000165699
0.000163218
0.000160721
0.00015816
0.00015556
0.000152818
0.000150043
0.000144471
1.52231e-07
1.16777e-05
3.47032e-05
5.4977e-05
7.09167e-05
8.31572e-05
9.27609e-05
0.000100606
0.000107366
0.000113538
0.000119473
0.000125404
0.000131478
0.000137782
0.00014436
0.000151229
0.000158386
0.000165819
0.000173504
0.000181416
0.000189525
0.000197805
0.00020622
0.000214736
0.00022333
0.000231979
0.000240662
0.000249356
0.00025804
0.000266696
0.000275308
0.000283863
0.000292349
0.000300755
0.000309071
0.000317286
0.000325393
0.000333386
0.000341257
0.000349
0.000356608
0.000364073
0.000371391
0.000378556
0.000385561
0.000392398
0.000399062
0.000405549
0.000411853
0.00041797
0.000423894
0.00042962
0.000435143
0.000440457
0.000445557
0.000450438
0.000455097
0.000459529
0.000463731
0.0004677
0.000471434
0.00047493
0.000478188
0.000481206
0.000483984
0.000486522
0.000488844
0.000490933
0.000492778
0.000494355
0.000495717
0.00049685
0.000497759
0.000498445
0.000498913
0.000499167
0.000499212
0.000499053
0.000498694
0.000498141
0.0004974
0.000496476
0.000495375
0.000494102
0.000492665
0.000491068
0.000489318
0.000487421
0.000485383
0.000483209
0.000480906
0.00047848
0.000475936
0.000473281
0.000470521
0.000467662
0.000464709
0.000461669
0.000458547
0.000455349
0.00045208
0.000448746
0.000445351
0.0004419
0.0004384
0.000434853
0.000431265
0.000427639
0.000423981
0.000420293
0.000416581
0.000412846
0.000409093
0.000405326
0.000401547
0.00039776
0.000393967
0.000390171
0.000386374
0.000382578
0.000378785
0.000374997
0.000371217
0.000367446
0.000363685
0.000359936
0.000356204
0.000352488
0.000348787
0.000345103
0.000341435
0.000337784
0.000334151
0.000330535
0.000326939
0.000323362
0.000319804
0.000316265
0.000312748
0.00030925
0.000305773
0.000302315
0.000298877
0.00029546
0.000292062
0.000288684
0.000285324
0.000281983
0.000278663
0.000275363
0.000272083
0.000268821
0.000265578
0.000262354
0.000259152
0.000255974
0.000252816
0.000249681
0.000246567
0.000243474
0.000240403
0.00023736
0.00023434
0.000231343
0.000228367
0.000225411
0.000222475
0.00021956
0.000216661
0.000213776
0.0002109
0.00020803
0.000205158
0.000202273
0.000199366
0.000196403
0.000193381
0.000190221
0.000187021
0.000181102
1.81419e-07
1.30885e-05
3.84019e-05
6.10669e-05
7.92117e-05
9.35464e-05
0.000105023
0.000114536
0.000122786
0.000130297
0.000137452
0.000144512
0.000151646
0.000158956
0.000166495
0.000174285
0.000182325
0.000190602
0.000199092
0.000207769
0.000216602
0.000225561
0.000234617
0.00024374
0.000252909
0.000262098
0.000271287
0.000280458
0.000289595
0.000298686
0.000307718
0.00031668
0.000325564
0.00033436
0.000343061
0.00035166
0.000360151
0.000368529
0.000376788
0.000384922
0.000392926
0.000400794
0.000408519
0.000416097
0.000423521
0.000430783
0.000437878
0.000444801
0.000451544
0.000458101
0.000464468
0.000470636
0.000476601
0.000482356
0.000487896
0.000493215
0.000498308
0.000503171
0.0005078
0.000512192
0.000516342
0.000520249
0.000523911
0.000527326
0.000530493
0.000533415
0.000536114
0.000538553
0.000540745
0.00054267
0.000544368
0.000545824
0.000547041
0.000548024
0.000548776
0.000549302
0.000549605
0.000549691
0.000549565
0.000549231
0.000548695
0.000547963
0.00054704
0.000545932
0.000544645
0.000543185
0.000541558
0.000539771
0.00053783
0.00053574
0.000533508
0.000531139
0.000528641
0.00052602
0.000523281
0.00052043
0.000517475
0.000514421
0.000511273
0.000508039
0.000504723
0.000501331
0.000497868
0.000494341
0.000490754
0.000487111
0.000483419
0.00047968
0.000475901
0.000472086
0.000468237
0.00046436
0.000460458
0.000456535
0.000452594
0.000448639
0.000444673
0.000440698
0.000436717
0.000432733
0.000428748
0.000424764
0.000420784
0.000416808
0.00041284
0.00040888
0.00040493
0.000400992
0.000397066
0.000393154
0.000389257
0.000385376
0.00038151
0.000377661
0.000373829
0.000370015
0.000366221
0.000362447
0.000358692
0.000354956
0.000351238
0.000347538
0.000343857
0.000340193
0.000336547
0.000332919
0.000329309
0.000325717
0.000322143
0.000318586
0.000315048
0.000311528
0.000308025
0.000304541
0.000301075
0.00029763
0.000294201
0.000290791
0.0002874
0.000284028
0.000280675
0.000277343
0.000274032
0.000270741
0.000267469
0.000264214
0.000260982
0.00025777
0.000254573
0.000251388
0.000248211
0.00024504
0.000241868
0.000238682
0.000235473
0.000232215
0.000228892
0.000225437
0.000222021
0.000215968
2.03608e-07
1.40721e-05
4.10083e-05
6.56343e-05
8.56896e-05
0.000101939
0.000115188
0.000126311
0.000136005
0.000144808
0.000153116
0.000161212
0.000169287
0.000177449
0.000185763
0.00019426
0.000202946
0.000211817
0.000220861
0.000230046
0.00023934
0.000248715
0.000258146
0.000267607
0.000277079
0.000286541
0.000295977
0.000305374
0.000314719
0.000324004
0.000333219
0.000342358
0.000351415
0.000360384
0.000369261
0.000378041
0.000386721
0.000395297
0.000403763
0.000412115
0.000420348
0.000428457
0.000436436
0.000444279
0.000451979
0.00045953
0.000466924
0.000474155
0.000481216
0.000488099
0.000494797
0.000501304
0.000507612
0.000513715
0.000519606
0.000525279
0.000530729
0.000535951
0.000540939
0.00054569
0.000550199
0.000554465
0.000558483
0.000562252
0.00056577
0.000569046
0.000572077
0.000574851
0.000577371
0.000579633
0.000581654
0.000583425
0.00058495
0.000586232
0.000587275
0.000588084
0.000588662
0.000589014
0.000589145
0.000589059
0.000588761
0.000588258
0.000587553
0.000586654
0.000585567
0.000584296
0.000582848
0.00058123
0.000579447
0.000577506
0.000575413
0.000573174
0.000570796
0.000568284
0.000565645
0.000562886
0.000560012
0.00055703
0.000553945
0.000550765
0.000547494
0.000544139
0.000540705
0.000537198
0.000533623
0.000529985
0.000526289
0.000522541
0.000518744
0.000514904
0.000511025
0.00050711
0.000503165
0.000499192
0.000495196
0.00049118
0.000487148
0.000483101
0.000479044
0.000474979
0.000470908
0.000466835
0.00046276
0.000458687
0.000454617
0.000450552
0.000446493
0.000442442
0.0004384
0.000434369
0.000430349
0.000426342
0.000422348
0.000418368
0.000414402
0.000410451
0.000406516
0.000402596
0.000398694
0.000394807
0.000390938
0.000387084
0.000383247
0.000379427
0.000375626
0.000371841
0.000368072
0.000364319
0.000360582
0.00035686
0.000353154
0.000349464
0.000345791
0.000342133
0.000338491
0.000334867
0.000331258
0.000327667
0.000324092
0.000320535
0.000316991
0.000313464
0.000309955
0.000306463
0.000302986
0.000299525
0.000296081
0.000292653
0.000289237
0.000285832
0.000282436
0.000279047
0.000275657
0.000272254
0.000268829
0.000265364
0.000261835
0.000258185
0.000254596
0.000248604
2.18629e-07
1.46851e-05
4.26617e-05
6.88039e-05
9.05076e-05
0.000108438
0.000123322
0.000135955
0.00014702
0.000157046
0.000166416
0.000175407
0.000184241
0.000193077
0.000202
0.000211052
0.000220238
0.00022955
0.000238966
0.000248457
0.000257999
0.000267571
0.000277155
0.000286731
0.000296285
0.000305804
0.000315275
0.00032469
0.000334043
0.000343328
0.000352541
0.00036168
0.000370742
0.000379726
0.000388628
0.000397447
0.000406181
0.000414826
0.000423379
0.000431837
0.000440193
0.000448442
0.000456578
0.000464595
0.000472486
0.000480242
0.000487856
0.000495319
0.000502625
0.000509764
0.000516728
0.00052351
0.000530101
0.000536495
0.000542683
0.000548659
0.000554417
0.000559951
0.000565254
0.000570323
0.000575154
0.000579741
0.000584082
0.000588175
0.000592018
0.000595616
0.000598959
0.000602049
0.000604886
0.000607469
0.000609803
0.000611883
0.000613708
0.000615286
0.000616621
0.000617716
0.000618576
0.000619203
0.000619603
0.00061978
0.000619738
0.000619484
0.000619022
0.000618359
0.000617499
0.000616449
0.000615214
0.000613801
0.000612217
0.000610466
0.000608556
0.000606492
0.000604282
0.00060193
0.000599444
0.00059683
0.000594094
0.000591243
0.000588282
0.000585218
0.000582056
0.000578803
0.000575465
0.000572046
0.000568552
0.00056499
0.000561363
0.000557677
0.000553937
0.000550147
0.000546313
0.000542437
0.000538525
0.000534581
0.000530608
0.00052661
0.00052259
0.000518551
0.000514498
0.000510431
0.000506355
0.000502271
0.000498183
0.000494091
0.000489999
0.000485907
0.000481818
0.000477734
0.000473655
0.000469583
0.000465519
0.000461464
0.000457419
0.000453384
0.000449361
0.00044535
0.000441351
0.000437365
0.000433392
0.000429433
0.000425487
0.000421555
0.000417637
0.000413733
0.000409843
0.000405966
0.000402104
0.000398256
0.000394422
0.000390602
0.000386797
0.000383006
0.000379229
0.000375466
0.000371717
0.000367982
0.000364262
0.000360555
0.000356864
0.000353187
0.000349524
0.000345876
0.000342243
0.000338622
0.000335014
0.000331419
0.000327837
0.000324267
0.000320708
0.000317158
0.000313613
0.000310072
0.000306528
0.000302974
0.000299402
0.000295796
0.000292135
0.000288367
0.000284646
0.000278863
2.27107e-07
1.49911e-05
4.35106e-05
7.07526e-05
9.3857e-05
0.000113215
0.000129567
0.000143562
0.000155815
0.000166869
0.000177157
0.000187005
0.000196613
0.000206096
0.000215537
0.000224981
0.000234459
0.000243982
0.000253575
0.00026319
0.000272789
0.000282362
0.000291901
0.000301397
0.000310843
0.000320231
0.000329559
0.000338823
0.000348023
0.000357159
0.000366232
0.000375243
0.000384193
0.000393083
0.000401913
0.000410683
0.00041939
0.000428033
0.000436607
0.000445108
0.000453531
0.000461869
0.000470115
0.000478261
0.000486299
0.000494219
0.000502013
0.000509672
0.000517185
0.000524544
0.00053174
0.000538762
0.000545604
0.000552255
0.000558709
0.000564956
0.000570992
0.000576808
0.000582398
0.000587758
0.000592882
0.000597766
0.000602406
0.0006068
0.000610945
0.00061484
0.00061848
0.000621872
0.000625013
0.000627898
0.00063054
0.000632915
0.000635031
0.000636899
0.000638521
0.000639901
0.000641041
0.000641945
0.000642618
0.000643064
0.000643286
0.000643292
0.000643084
0.00064267
0.000642054
0.000641242
0.00064024
0.000639055
0.000637692
0.000636157
0.000634457
0.000632598
0.000630586
0.000628427
0.000626128
0.000623696
0.000621135
0.000618454
0.000615657
0.000612751
0.000609741
0.000606635
0.000603438
0.000600155
0.000596791
0.000593354
0.000589846
0.000586275
0.000582644
0.000578959
0.000575224
0.000571443
0.000567621
0.000563761
0.000559868
0.000555946
0.000551997
0.000548026
0.000544034
0.000540026
0.000536004
0.000531971
0.000527928
0.000523879
0.000519824
0.000515767
0.000511709
0.000507651
0.000503595
0.000499543
0.000495494
0.000491451
0.000487415
0.000483386
0.000479364
0.000475351
0.000471347
0.000467352
0.000463367
0.000459393
0.000455429
0.000451475
0.000447533
0.000443601
0.00043968
0.000435771
0.000431872
0.000427985
0.000424109
0.000420245
0.000416391
0.00041255
0.00040872
0.000404903
0.000401097
0.000397305
0.000393524
0.000389756
0.000386001
0.000382258
0.000378527
0.000374808
0.000371103
0.000367409
0.000363727
0.000360057
0.000356395
0.000352743
0.000349099
0.000345461
0.000341828
0.000338196
0.000334562
0.000330917
0.000327256
0.000323564
0.000319823
0.000315994
0.000312185
0.000306666
2.29878e-07
1.50486e-05
4.36922e-05
7.16578e-05
9.58665e-05
0.000116382
0.000133886
0.000149015
0.000162411
0.000174551
0.000185787
0.000196393
0.000206586
0.000216516
0.000226284
0.000235945
0.000245568
0.00025522
0.000264823
0.000274357
0.000283813
0.000293194
0.000302502
0.00031174
0.000320907
0.000330009
0.000339048
0.000348029
0.000356959
0.000365843
0.000374687
0.000383494
0.000392269
0.000401013
0.000409729
0.000418414
0.000427068
0.000435687
0.000444266
0.000452799
0.000461278
0.000469696
0.000478043
0.00048631
0.000494486
0.000502562
0.000510526
0.000518368
0.000526077
0.000533642
0.000541054
0.000548301
0.000555375
0.000562267
0.000568967
0.000575467
0.000581759
0.000587837
0.000593694
0.000599323
0.00060472
0.00060988
0.000614798
0.000619471
0.000623897
0.00062807
0.000631992
0.000635675
0.000639103
0.000642275
0.000645213
0.000647862
0.00065026
0.000652408
0.000654309
0.000655966
0.000657382
0.000658559
0.000659503
0.000660216
0.000660703
0.00066097
0.00066102
0.00066086
0.000660495
0.00065993
0.000659171
0.000658224
0.000657095
0.00065579
0.000654316
0.000652678
0.000650883
0.000648937
0.000646847
0.000644618
0.000642257
0.000639771
0.000637164
0.000634444
0.000631617
0.000628688
0.000625663
0.000622548
0.000619349
0.00061607
0.000612719
0.000609298
0.000605814
0.000602272
0.000598675
0.000595029
0.000591337
0.000587604
0.000583833
0.000580029
0.000576195
0.000572334
0.00056845
0.000564545
0.000560622
0.000556684
0.000552733
0.000548771