/*--------------------------------*- C++ -*----------------------------------*\
  =========                 |
  \\      /  F ield         | OpenFOAM: The Open Source CFD Toolbox
   \\    /   O peration     | Website:  https://openfoam.org
    \\  /    A nd           | Version:  6
     \\/     M anipulation  |
\*---------------------------------------------------------------------------*/
FoamFile
{
    version     2.0;
    format      ascii;
    class       volScalarField;
    location    "235";
    object      p;
}
// * * * * * * * * * * * * * * * * * * * * * * * * * * * * * * * * * * * * * //

dimensions      [0 2 -2 0 0 0 0];

internalField   nonuniform List<scalar> 
12225
(
-0.0628556
-0.0482759
-0.0262595
-0.00932147
0.00227676
0.0101057
0.0153622
0.018791
0.0209093
0.0220698
0.0225054
0.0223638
0.0217239
0.0205877
0.0188552
0.0161518
0.0115977
0.00173892
-0.103581
-0.0535884
-0.0296371
-0.0121645
-0.000150934
0.0080181
0.0135597
0.0172208
0.0195279
0.0208406
0.0213972
0.0213487
0.0207749
0.0196766
0.0179558
0.0152665
0.0110244
0.00329287
-0.132486
-0.061845
-0.0359063
-0.0173287
-0.00457086
0.00419193
0.0102333
0.0143059
0.0169507
0.018539
0.0193178
0.0194449
0.019005
0.0180048
0.016369
0.0138407
0.0102458
0.00514285
-0.141981
-0.0693888
-0.0423499
-0.0226828
-0.00922749
8.81625e-05
0.00660292
0.0110769
0.0140607
0.0159333
0.0169492
0.017274
0.0170023
0.0161596
0.0147187
0.0125598
0.00981358
0.00670671
-0.140154
-0.0749017
-0.0474353
-0.027136
-0.013227
-0.00352201
0.00334116
0.00812501
0.0113818
0.013493
0.0147176
0.0152287
0.0151343
0.0144867
0.0133142
0.0116204
0.00968464
0.00783806
-0.132082
-0.0780924
-0.0509732
-0.0306275
-0.016538
-0.00660437
0.000491568
0.00550142
0.00897034
0.0112772
0.0126834
0.0133689
0.0134558
0.0130243
0.0121498
0.010919
0.00965722
0.00860702
-0.120025
-0.0787418
-0.052968
-0.0331742
-0.0191941
-0.00919389
-0.00197263
0.00318806
0.00681597
0.00928225
0.0108476
0.0116978
0.0119675
0.0117609
0.0111865
0.0103769
0.00964732
0.00910827
-0.10554
-0.0767674
-0.0533852
-0.0347054
-0.0211486
-0.0112623
-0.00403092
0.00120247
0.00493544
0.00752471
0.00922651
0.0102295
0.0106784
0.0106942
0.0104047
0.00996057
0.00963734
0.00941987
-0.0898359
-0.0723344
-0.0522178
-0.0351468
-0.0223385
-0.0127658
-0.00565089
-0.000429116
0.00335143
0.00602485
0.00783791
0.00897838
0.00959617
0.00982193
0.00979039
0.00965132
0.00962875
0.00960783
-0.0737447
-0.0658195
-0.0495238
-0.034465
-0.0227183
-0.013669
-0.00680521
-0.00168513
0.0020817
0.00479766
0.00669397
0.00795257
0.00872326
0.00913874
0.0093311
0.00943789
0.00963185
0.00972752
-0.0577405
-0.0577181
-0.045469
-0.0326985
-0.0222822
-0.0139579
-0.00748026
-0.00255384
0.001136
0.00385091
0.0058
0.00715386
0.00805658
0.00863631
0.00901582
0.0093151
0.00966377
0.00982296
-0.0433635
-0.0492882
-0.0407496
-0.0302001
-0.0211804
-0.0136796
-0.0076692
-0.00299952
0.000563923
0.00323849
0.00520732
0.00662562
0.00762744
0.00833205
0.00885017
0.00928475
0.0097372
0.00992162
-0.03009
-0.0401285
-0.0353157
-0.026981
-0.0194355
-0.0128885
-0.00744789
-0.00310802
0.000275532
0.00287039
0.00482921
0.0062873
0.0073647
0.00816826
0.00879481
0.00933098
0.00984164
0.0100701
-0.0161431
-0.029286
-0.028491
-0.0226224
-0.0167683
-0.011411
-0.00672168
-0.00283442
0.000285759
0.00274478
0.00465668
0.00613003
0.0072647
0.00815059
0.00886794
0.00948552
0.0100358
0.0103185
-0.00195295
-0.0172963
-0.0204007
-0.0171462
-0.0131114
-0.00912291
-0.00535774
-0.00205205
0.000712686
0.00296991
0.00478792
0.00624153
0.00740485
0.00834668
0.00912909
0.00980304
0.0103804
0.0107153
0.0116127
-0.00512064
-0.0116014
-0.0108953
-0.00864584
-0.00606404
-0.00331704
-0.000684001
0.00165181
0.00364809
0.00532409
0.00671795
0.00787447
0.00883965
0.00965666
0.0103607
0.0109538
0.0113396
0.0230927
0.00567145
-0.0033165
-0.0047582
-0.00401766
-0.00265014
-0.00083555
0.00115439
0.00306767
0.00479506
0.00631204
0.00762428
0.00875027
0.00971496
0.0105451
0.0112636
0.011873
0.012327
0.0298127
0.0125109
0.00228729
-0.000407557
-0.000526263
0.000146931
0.00139601
0.00298176
0.00462731
0.00618241
0.00759438
0.00884923
0.00994899
0.0109049
0.011733
0.0124489
0.0130627
0.013571
0.0272265
0.0109746
0.00138985
-0.000817423
-0.000448835
0.00063889
0.002214
0.00406538
0.005932
0.00766943
0.00923102
0.010609
0.0118103
0.0128502
0.0137476
0.014523
0.0152036
0.015836
0.0171739
0.000938937
-0.00670749
-0.00679474
-0.00479657
-0.00240433
0.00021838
0.0028651
0.00532237
0.00750166
0.00939569
0.0110226
0.0124091
0.0135845
0.0145781
0.0154168
0.0161381
0.0168059
0.000128624
-0.0139713
-0.017737
-0.0144885
-0.0100421
-0.00575776
-0.00170607
0.00196233
0.00513696
0.00782243
0.0100729
0.0119491
0.013508
0.0148018
0.0158754
0.0167679
0.0175251
0.0182309
-0.0213192
-0.0311503
-0.0293976
-0.0221045
-0.0148523
-0.0085188
-0.00303506
0.00158544
0.00538707
0.00848543
0.0110042
0.0130501
0.0147119
0.0160633
0.0171638
0.0180615
0.0188061
0.0194831
-0.0455021
-0.0482296
-0.0396143
-0.028075
-0.0180862
-0.00991281
-0.00326115
0.00207485
0.00631422
0.00967669
0.0123472
0.0144719
0.0161662
0.0175204
0.0186052
0.0194753
0.0201825
0.0208111
-0.071104
-0.0630099
-0.0468454
-0.0314785
-0.0192296
-0.0096913
-0.00227141
0.00348415
0.00794566
0.0114122
0.0141142
0.0162265
0.0178821
0.0191829
0.0202067
0.021013
0.0216523
0.0222048
-0.0964544
-0.0734073
-0.0502165
-0.032035
-0.0182654
-0.00794101
-0.000161796
0.00573446
0.0102204
0.0136464
0.0162723
0.0182902
0.0198438
0.0210412
0.021964
0.022674
0.0232199
0.0236756
-0.119267
-0.0778735
-0.0495835
-0.029928
-0.0154463
-0.00488227
0.00290257
0.0087039
0.0130477
0.0163108
0.0187685
0.0206214
0.0220177
0.0230678
0.0238541
0.0244391
0.0248693
0.0252099
-0.135725
-0.0758874
-0.0452058
-0.0254219
-0.011008
-0.00067076
0.00682554
0.0123271
0.0163788
0.0193665
0.0215695
0.0231904
0.0243765
0.025237
0.0258529
0.0262853
0.0265778
0.0267855
-0.137431
-0.0678876
-0.0376103
-0.0187403
-0.00508043
0.00463126
0.0115714
0.0165734
0.0201818
0.0227786
0.0246382
0.0259575
0.0268788
0.0275063
0.027917
0.0281686
0.0283017
0.0283611
-0.111333
-0.0561218
-0.0289033
-0.0113272
0.00124555
0.0101318
0.0163763
0.0207784
0.023875
0.0260352
0.0275211
0.0285192
0.0291635
0.029551
0.029753
0.0298225
0.0297972
0.0297168
-0.0634036
-0.0472864
-0.0235366
-0.00675762
0.00511179
0.0134684
0.0192693
0.0232931
0.026071
0.0279622
0.0292194
0.0300222
0.0304988
0.0307417
0.0308181
0.0307782
0.0306579
0.0304982
-0.00203863
-0.00203163
-0.00207912
-0.00218436
-0.00232557
-0.00248666
-0.002661
-0.00284645
-0.00304215
-0.00324891
-0.00346834
-0.00370193
-0.00395025
-0.00421347
-0.00449142
-0.00478378
-0.00508981
-0.00540866
-0.00573886
-0.00607864
-0.00642533
-0.00677588
-0.00712598
-0.00747067
-0.00780349
-0.00811746
-0.00840418
-0.00865516
-0.00886078
-0.00901195
-0.00909885
-0.00911288
-0.00904495
-0.00888768
-0.00863339
-0.00827643
-0.00781091
-0.00723327
-0.00653984
-0.00572919
-0.00479925
-0.00374978
-0.00258064
-0.00129598
9.82582e-05
0.00159596
0.00320001
0.00491717
0.00674606
0.00867634
0.0107008
0.0128115
0.0150023
0.0172657
0.0195953
0.0219837
0.0244241
0.0269091
0.0294317
0.0319844
0.0345603
0.0371523
0.0397534
0.0423567
0.0449559
0.0475444
0.0501162
0.0526653
0.0551864
0.0576741
0.0601235
0.0625301
0.0648895
0.067198
0.0694521
0.0716486
0.0737847
0.075858
0.0778662
0.0798078
0.081681
0.0834849
0.0852185
0.0868813
0.0884728
0.0899932
0.0914422
0.0928204
0.0941286
0.0953696
0.0965462
0.097658
0.0987041
0.0996856
0.100604
0.10146
0.102256
0.102995
0.103677
0.104304
0.10488
0.105404
0.105881
0.10631
0.106696
0.107038
0.107341
0.107604
0.107831
0.108023
0.108182
0.10831
0.108409
0.10848
0.108525
0.108545
0.108542
0.108518
0.108474
0.108412
0.108332
0.108235
0.108124
0.107999
0.107861
0.107711
0.107551
0.107381
0.107202
0.107014
0.106819
0.106618
0.10641
0.106196
0.105978
0.105755
0.105528
0.105297
0.105064
0.104827
0.104588
0.104347
0.104104
0.10386
0.103614
0.103366
0.103117
0.102867
0.102615
0.102363
0.102111
0.101857
0.101604
0.10135
0.101095
0.100841
0.100586
0.100331
0.100077
0.0998219
0.0995676
0.0993137
0.0990605
0.0988084
0.0985578
0.0983093
0.0980637
0.0978219
0.0975854
0.0973561
0.0971365
0.0969299
0.0967413
0.0965771
0.0964475
0.0963646
0.096357
0.0964353
0.0967587
0.097004
-0.00187972
-0.00189967
-0.0019568
-0.0020498
-0.00216497
-0.00228866
-0.00241563
-0.00254815
-0.00269161
-0.00285036
-0.003026
-0.00321882
-0.00342992
-0.00366047
-0.00391093
-0.00418159
-0.00447227
-0.00478257
-0.00511132
-0.0054571
-0.00581735
-0.00618872
-0.00656607
-0.00694351
-0.0073135
-0.00766804
-0.00799777
-0.00829342
-0.00854474
-0.00874221
-0.00887578
-0.00893666
-0.00891587
-0.00880608
-0.00859994
-0.00829191
-0.00787649
-0.00735012
-0.0067093
-0.00595242
-0.00507773
-0.00408521
-0.00297462
-0.00174705
-0.000402063
0.00106029
0.00263686
0.00431813
0.00609825
0.00797418
0.00994215
0.0119966
0.0141319
0.0163417
0.0186196
0.0209587
0.0233525
0.0257936
0.0282753
0.0307903
0.0333317
0.0358925
0.0384657
0.0410446
0.0436227
0.0461936
0.0487511
0.0512896
0.0538033
0.0562868
0.058735
0.0611436
0.063508
0.0658243
0.0680889
0.0702985
0.07245
0.074541
0.0765691
0.0785325
0.0804293
0.0822585
0.0840189
0.0857099
0.0873307
0.0888814
0.0903621
0.0917736
0.0931155
0.0943857
0.0955843
0.0967147
0.0977799
0.0987813
0.0997203
0.100598
0.101417
0.102178
0.102883
0.103534
0.104133
0.104681
0.105181
0.105634
0.106043
0.106409
0.106734
0.107021
0.10727
0.107484
0.107665
0.107814
0.107933
0.108024
0.108089
0.108128
0.108144
0.108138
0.108112
0.108066
0.108002
0.107922
0.107826
0.107715
0.107592
0.107456
0.107308
0.107151
0.106984
0.106808
0.106624
0.106433
0.106235
0.106031
0.105822
0.105607
0.105389
0.105166
0.10494
0.104711
0.104478
0.104244
0.104007
0.103768
0.103527
0.103284
0.10304
0.102794
0.102547
0.102299
0.10205
0.101801
0.101551
0.1013
0.101049
0.100797
0.100545
0.100293
0.100041
0.0997886
0.0995364
0.0992846
0.0990334
0.0987832
0.0985345
0.0982878
0.0980439
0.0978039
0.0975691
0.0973416
0.0971239
0.0969193
0.0967328
0.0965708
0.0964435
0.0963623
0.0963558
0.0964273
0.0967317
0.0969023
-0.00141027
-0.00149589
-0.00163553
-0.00178643
-0.00190927
-0.00200017
-0.00207451
-0.00214847
-0.00223406
-0.00233937
-0.00246939
-0.00262724
-0.00281482
-0.00303342
-0.00328356
-0.0035652
-0.00387722
-0.00421778
-0.00458394
-0.00497207
-0.00537704
-0.00579288
-0.0062126
-0.00662895
-0.00703368
-0.00741847
-0.00777426
-0.00809232
-0.00836341
-0.00857904
-0.00873045
-0.00880991
-0.00880963
-0.00872306
-0.00854371
-0.00826649
-0.0078864
-0.00739989
-0.00680355
-0.00609541
-0.00527365
-0.00433798
-0.00328825
-0.00212512
-0.000848353
0.000541213
0.00204129
0.00364681
0.005353
0.00715548
0.00904999
0.0110314
0.0130944
0.015233
0.0174414
0.019713
0.0220414
0.0244199
0.0268416
0.0292997
0.0317874
0.0342978
0.0368243
0.0393601
0.0418987
0.0444339
0.0469596
0.0494701
0.0519597
0.0544229
0.0568547
0.0592505
0.0616058
0.0639166
0.0661791
0.0683899
0.0705458
0.0726443
0.0746828
0.0766592
0.0785718
0.080419
0.0821997
0.083913
0.085558
0.0871344
0.0886422
0.0900817
0.0914536
0.0927585
0.0939966
0.095169
0.096277
0.0973214
0.0983034
0.0992245
0.100086
0.10089
0.101637
0.10233
0.10297
0.103559
0.104099
0.104592
0.105039
0.105443
0.105806
0.106128
0.106413
0.106662
0.106876
0.107058
0.10721
0.107332
0.107426
0.107495
0.107539
0.10756
0.10756
0.10754
0.107501
0.107444
0.107371
0.107282
0.10718
0.107064
0.106936
0.106797
0.106648
0.106489
0.106321
0.106146
0.105963
0.105773
0.105577
0.105376
0.10517
0.104959
0.104744
0.104525
0.104303
0.104077
0.103849
0.103619
0.103386
0.103151
0.102914
0.102675
0.102434
0.102193
0.10195
0.101706
0.101461
0.101215
0.100969
0.100721
0.100474
0.100225
0.0999768
0.099728
0.0994792
0.0992306
0.0989824
0.098735
0.098489
0.0982448
0.0980034
0.0977658
0.0975333
0.097308
0.0970923
0.0968896
0.0967046
0.0965437
0.0964161
0.0963324
0.0963179
0.0963642
0.0966074
0.0966581
-0.000708544
-0.000869782
-0.00112925
-0.00139014
-0.00157743
-0.00170079
-0.0017912
-0.00187266
-0.00196214
-0.0020718
-0.00220976
-0.00238111
-0.00258862
-0.00283355
-0.00311577
-0.00343414
-0.00378619
-0.0041686
-0.00457681
-0.00500554
-0.00544851
-0.00589913
-0.00634992
-0.00679336
-0.0072213
-0.00762576
-0.00799819
-0.00833051
-0.0086142
-0.0088415
-0.00900438
-0.00909578
-0.00910849
-0.00903647
-0.00887364
-0.00861515
-0.00825624
-0.00779342
-0.00722328
-0.00654369
-0.00575266
-0.00484948
-0.00383361
-0.00270558
-0.00146598
-0.000116538
0.0013404
0.00290105
0.00456168
0.00631813
0.00816623
0.0101011
0.0121177
0.0142104
0.0163734
0.0186006
0.0208857
0.0232222
0.0256034
0.0280228
0.0304736
0.0329492
0.0354429
0.0379481
0.0404585
0.0429678
0.0454702
0.0479599
0.050431
0.0528782
0.0552967
0.0576817
0.0600287
0.0623337
0.0645928
0.0668025
0.0689598
0.0710618
0.0731059
0.07509
0.0770122
0.0788709
0.0806647
0.0823928
0.0840545
0.0856496
0.0871778
0.0886392
0.0900347
0.0913649
0.0926305
0.0938318
0.0949695
0.0960442
0.0970572
0.0980095
0.0989026
0.099738
0.100517
0.101242
0.101914
0.102535
0.103107
0.103631
0.104109
0.104544
0.104937
0.105289
0.105604
0.105881
0.106124
0.106334
0.106513
0.106661
0.106782
0.106876
0.106945
0.10699
0.107013
0.107015
0.106998
0.106963
0.10691
0.106842
0.106758
0.106661
0.106551
0.106429
0.106297
0.106154
0.106002
0.105841
0.105672
0.105496
0.105313
0.105125
0.10493
0.104731
0.104526
0.104318
0.104106
0.10389
0.103671
0.103449
0.103224
0.102997
0.102767
0.102536
0.102302
0.102067
0.10183
0.101592
0.101352
0.101112
0.10087
0.100628
0.100384
0.10014
0.0998957
0.0996507
0.0994054
0.0991601
0.0989151
0.0986707
0.0984274
0.0981858
0.0979467
0.0977111
0.0974805
0.0972565
0.0970418
0.0968393
0.0966535
0.09649
0.0963569
0.0962629
0.0962276
0.0962346
0.0963932
0.0963131
1.35709e-05
-0.00021581
-0.00060841
-0.00100779
-0.00129826
-0.00149892
-0.00165258
-0.00178883
-0.00192779
-0.0020841
-0.00226774
-0.00248493
-0.00273885
-0.00303057
-0.00335936
-0.00372324
-0.0041189
-0.00454225
-0.00498802
-0.00545044
-0.00592278
-0.0063982
-0.00686923
-0.00732849
-0.007768
-0.00818019
-0.008557
-0.00889097
-0.00917425
-0.00939972
-0.00956002
-0.0096487
-0.0096591
-0.00958567
-0.00942271
-0.0091657
-0.00881012
-0.00835263
-0.00778994
-0.00711997
-0.00634072
-0.00545137
-0.00445122
-0.00334073
-0.00212054
-0.000792434
0.000641468
0.00217797
0.00381378
0.0055449
0.00736724
0.00927601
0.0112663
0.0133327
0.0154694
0.0176706
0.0199301
0.0222414
0.0245983
0.026994
0.029422
0.0318758
0.0343488
0.0368346
0.0393267
0.0418192
0.0443063
0.0467822
0.0492409
0.0516772
0.0540864
0.0564638
0.058805
0.0611056
0.063362
0.0655707
0.0677285
0.0698326
0.0718803
0.0738695
0.0757982
0.0776649
0.0794683
0.0812075
0.0828818
0.0844905
0.0860335
0.0875107
0.0889225
0.0902697
0.0915528
0.0927724
0.093929
0.0950233
0.0960565
0.0970297
0.0979441
0.0988013
0.0996026
0.10035
0.101044
0.101688
0.102282
0.102829
0.10333
0.103788
0.104203
0.104578
0.104915
0.105214
0.105479
0.10571
0.105909
0.106079
0.10622
0.106333
0.106422
0.106486
0.106528
0.106549
0.106549
0.106531
0.106495
0.106443
0.106375
0.106294
0.106199
0.106091
0.105973
0.105843
0.105704
0.105556
0.105399
0.105235
0.105063
0.104885
0.104701
0.104512
0.104317
0.104118
0.103915
0.103708
0.103497
0.103282
0.103065
0.102844
0.102622
0.102396
0.102169
0.10194
0.101708
0.101476
0.101241
0.101006
0.100769
0.100531
0.100291
0.100051
0.0998104
0.0995689
0.0993269
0.0990847
0.0988425
0.0986008
0.0983599
0.0981204
0.0978831
0.097649
0.0974193
0.0971958
0.0969805
0.0967765
0.0965874
0.0964181
0.0962749
0.0961641
0.0960998
0.09606
0.0961297
0.0959338
0.000552729
0.000269864
-0.000239558
-0.000767687
-0.00116566
-0.00145681
-0.00169038
-0.00189929
-0.00210546
-0.00232489
-0.00256852
-0.0028431
-0.0031519
-0.0034958
-0.0038736
-0.00428282
-0.00471961
-0.00517943
-0.00565672
-0.00614557
-0.00663928
-0.00713117
-0.00761392
-0.00808049
-0.00852337
-0.00893545
-0.0093092
-0.00963768
-0.00991359
-0.0101303
-0.0102811
-0.0103598
-0.0103604
-0.0102775
-0.0101057
-0.00984092
-0.00947868
-0.00901582
-0.00844914
-0.00777662
-0.0069963
-0.00610737
-0.00510912
-0.00400203
-0.00278671
-0.0014649
-3.85565e-05
0.00148935
0.0031157
0.0048366
0.006648
0.00854521
0.0105234
0.012577
0.0147007
0.0168885
0.0191343
0.0214318
0.0237748
0.0261566
0.028571
0.0310113
0.0334711
0.0359441
0.038424
0.0409049
0.0433811
0.0458466
0.0482957
0.0507234
0.0531249
0.0554956
0.057831
0.060127
0.0623798
0.0645859
0.0667422
0.0688459
0.0708943
0.0728854
0.0748173
0.0766885
0.0784975
0.0802433
0.0819252
0.0835426
0.0850952
0.0865829
0.088006
0.0893649
0.0906603
0.0918927
0.0930626
0.094171
0.0952188
0.0962071
0.0971372
0.0980104
0.0988282
0.0995921
0.100304
0.100965
0.101576
0.102141
0.10266
0.103135
0.103568
0.103961
0.104315
0.104632
0.104914
0.105162
0.105379
0.105565
0.105723
0.105853
0.105957
0.106038
0.106095
0.106131
0.106146
0.106142
0.106121
0.106082
0.106028
0.10596
0.105877
0.105782
0.105676
0.105558
0.10543
0.105293
0.105147
0.104993
0.104831
0.104663
0.104488
0.104307
0.104121
0.10393
0.103734
0.103535
0.103331
0.103123
0.102913
0.102699
0.102482
0.102263
0.102041
0.101817
0.101591
0.101363
0.101133
0.100902
0.100669
0.100435
0.1002
0.0999632
0.0997258
0.0994874
0.0992485
0.0990091
0.0987695
0.09853
0.0982911
0.0980533
0.0978173
0.097584
0.0973545
0.0971303
0.0969134
0.0967062
0.0965117
0.0963339
0.0961774
0.0960456
0.095948
0.0958583
0.0958439
0.0955515
0.000771464
0.000453146
-0.000136239
-0.000760778
-0.00124997
-0.00162607
-0.00193941
-0.0022229
-0.00249871
-0.00278313
-0.00308731
-0.00341815
-0.00377896
-0.00417048
-0.00459134
-0.00503884
-0.00550897
-0.00599704
-0.00649747
-0.00700443
-0.00751144
-0.0080121
-0.00849948
-0.00896691
-0.00940726
-0.00981384
-0.0101796
-0.0104979
-0.010762
-0.0109656
-0.0111022
-0.0111663
-0.0111518
-0.0110538
-0.0108672
-0.0105879
-0.0102116
-0.00973541
-0.00915613
-0.00847185
-0.00768067
-0.00678185
-0.00577479
-0.00466002
-0.0034382
-0.00211105
-0.000680504
0.000850556
0.00247906
0.00420113
0.00601277
0.00790926
0.00988577
0.0119369
0.0140572
0.0162408
0.0184816
0.0207734
0.0231101
0.0254851
0.0278921
0.0303247
0.0327765
0.0352413
0.0377129
0.0401857
0.0426536
0.0451108
0.047552
0.0499721
0.0523666
0.0547306
0.0570599
0.0593503
0.061598
0.0637998
0.0659525
0.0680535
0.0701002
0.0720904
0.0740223
0.0758943
0.0777051
0.0794535
0.0811388
0.0827605
0.0843182
0.0858119
0.0872416
0.0886079
0.0899112
0.0911521
0.0923311
0.0934491
0.0945071
0.0955062
0.0964476
0.0973326
0.0981626
0.0989391
0.0996636
0.100338
0.100963
0.101541
0.102074
0.102563
0.10301
0.103417
0.103786
0.104117
0.104413
0.104676
0.104906
0.105106
0.105278
0.105422
0.10554
0.105633
0.105704
0.105752
0.10578
0.105789
0.10578
0.105753
0.105711
0.105654
0.105583
0.105498
0.105402
0.105295
0.105177
0.105049
0.104913
0.104768
0.104615
0.104455
0.104288
0.104116
0.103937
0.103754
0.103565
0.103372
0.103175
0.102974
0.102769
0.102561
0.10235
0.102136
0.101919
0.1017
0.101478
0.101255
0.10103
0.100802
0.100574
0.100343
0.100111
0.0998781
0.0996438
0.0994084
0.0991721
0.0989351
0.0986978
0.0984602
0.098223
0.0979864
0.0977512
0.0975181
0.097288
0.0970624
0.0968427
0.0966309
0.0964295
0.0962411
0.0960689
0.0959135
0.0957806
0.0956412
0.09555
0.095178
0.000612993
0.000281434
-0.000344354
-0.00102354
-0.00157619
-0.00201884
-0.00239883
-0.00274668
-0.00308332
-0.0034244
-0.00378074
-0.00415915
-0.00456282
-0.00499244
-0.00544653
-0.00592242
-0.00641613
-0.00692311
-0.00743794
-0.00795499
-0.00846803
-0.00897098
-0.00945723
-0.00992045
-0.0103538
-0.010751
-0.0111052
-0.0114101
-0.0116592
-0.0118466
-0.0119659
-0.0120117
-0.0119784
-0.0118611
-0.011655
-0.011356
-0.0109602
-0.0104646
-0.00986616
-0.00916318
-0.00835385
-0.00743754
-0.00641379
-0.00528318
-0.00404646
-0.00270543
-0.00126208
0.00028068
0.00191975
0.00365122
0.00547104
0.0073745
0.00935673
0.0114124
0.0135359
0.0157215
0.0179631
0.0202547
0.02259
0.0249627
0.0273664
0.0297949
0.0322418
0.0347012
0.0371668
0.0396331
0.042094
0.044544
0.0469779
0.0493908
0.051778
0.0541348
0.0564569
0.0587405
0.060982
0.0631779
0.0653254
0.0674217
0.0694643
0.071451
0.0733802
0.07525
0.0770594
0.0788072
0.0804927
0.0821152
0.0836746
0.0851706
0.0866034
0.0879733
0.0892809
0.0905267
0.0917112
0.0928352
0.0938999
0.0949062
0.0958554
0.0967486
0.0975874
0.098373
0.0991071
0.0997912
0.100427
0.101015
0.101559
0.102059
0.102518
0.102936
0.103315
0.103658
0.103966
0.10424
0.104483
0.104694
0.104877
0.105033
0.105162
0.105267
0.105349
0.105408
0.105447
0.105467
0.105468
0.105452
0.10542
0.105373
0.105311
0.105237
0.10515
0.105052
0.104943
0.104824
0.104695
0.104558
0.104414
0.104261
0.104102
0.103937
0.103765
0.103588
0.103406
0.103219
0.103028
0.102833
0.102634
0.102431
0.102225
0.102016
0.101804
0.101589
0.101372
0.101153
0.100931
0.100708
0.100483
0.100256
0.100027
0.0997969
0.0995653
0.0993326
0.0990987
0.0988639
0.0986284
0.0983925
0.0981565
0.0979208
0.0976859
0.0974524
0.0972213
0.0969934
0.09677
0.0965526
0.0963429
0.0961424
0.0959528
0.0957727
0.0956041
0.0954173
0.095257
0.0948196
9.14528e-05
-0.000233027
-0.000854635
-0.00154661
-0.00213074
-0.00261511
-0.00304132
-0.00343631
-0.00381875
-0.0042029
-0.00459859
-0.00501198
-0.00544613
-0.00590184
-0.00637775
-0.00687127
-0.00737859
-0.00789534
-0.00841626
-0.00893598
-0.00944853
-0.00994812
-0.0104284
-0.0108833
-0.0113062
-0.0116909
-0.0120308
-0.0123199
-0.0125517
-0.0127203
-0.0128199
-0.0128449
-0.0127899
-0.0126502
-0.0124209
-0.0120984
-0.0116787
-0.011159
-0.0105365
-0.0098095
-0.00897647
-0.00803696
-0.00699062
-0.00583815
-0.00458048
-0.00321953
-0.00175738
-0.000197069
0.00145822
0.00320452
0.00503772
0.00695302
0.00894555
0.0110099
0.0131406
0.0153318
0.0175776
0.0198718
0.0222083
0.0245808
0.0269831
0.029409
0.0318524
0.0343071
0.0367674
0.0392273
0.0416812
0.0441236
0.0465495
0.0489543
0.0513331
0.0536816
0.0559954
0.0582707
0.0605041
0.0626923
0.0648324
0.0669216
0.0689577
0.0709385
0.0728623
0.0747275
0.0765327
0.0782771
0.0799599
0.0815804
0.0831385
0.0846339
0.0860667
0.0874373
0.0887463
0.089994
0.091181
0.0923083
0.0933767
0.0943874
0.0953415
0.0962403
0.097085
0.0978772
0.0986181
0.0993095
0.0999527
0.10055
0.101101
0.10161
0.102077
0.102505
0.102894
0.103246
0.103563
0.103847
0.104099
0.104321
0.104513
0.104679
0.104818
0.104933
0.105024
0.105093
0.105142
0.105171
0.105181
0.105174
0.105151
0.105113
0.10506
0.104994
0.104916
0.104826
0.104725
0.104613
0.104493
0.104363
0.104226
0.10408
0.103928
0.103769
0.103604
0.103433
0.103257
0.103076
0.10289
0.1027
0.102506
0.102308
0.102107
0.101903
0.101695
0.101485
0.101272
0.101056
0.100839
0.100619
0.100397
0.100173
0.0999472
0.0997198
0.0994909
0.0992605
0.0990288
0.0987959
0.0985621
0.0983275
0.0980924
0.0978571
0.0976221
0.0973879
0.097155
0.0969242
0.0966964
0.0964725
0.0962535
0.09604
0.0958322
0.0956269
0.0954235
0.0951922
0.0949707
0.0944798
-0.000735146
-0.0010363
-0.00162077
-0.00228891
-0.00287358
-0.00337389
-0.00382399
-0.0042465
-0.00465684
-0.00506745
-0.0054872
-0.00592169
-0.00637345
-0.00684305
-0.0073293
-0.00782989
-0.00834124
-0.00885918
-0.00937867
-0.00989454
-0.010401
-0.0108925
-0.0113628
-0.0118059
-0.0122153
-0.0125849
-0.0129083
-0.0131793
-0.0133916
-0.0135395
-0.0136169
-0.0136186
-0.0135392
-0.0133741
-0.0131187
-0.0127692
-0.0123219
-0.0117743
-0.0111237
-0.0103687
-0.00950781
-0.0085409
-0.00746777
-0.00628934
-0.0050067
-0.00362194
-0.00213732
-0.000555978
0.00111877
0.00288286
0.00473208
0.00666161
0.00866652
0.0107414
0.0128807
0.0150788
0.0173296
0.019627
0.0219651
0.0243376
0.0267384
0.0291612
0.0316002
0.0340493
0.0365029
0.0389551
0.0414006
0.0438341
0.0462506
0.0486455
0.0510142
0.0533522
0.0556554
0.0579203
0.0601433
0.0623214
0.0644516
0.0665314
0.0685585
0.0705308
0.0724467
0.0743045
0.0761031
0.0778415
0.0795189
0.0811349
0.082689
0.0841811
0.0856114
0.0869802
0.088288
0.0895352
0.0907224
0.0918504
0.0929203
0.0939331
0.0948899
0.0957919
0.0966404
0.0974369
0.0981827
0.0988793
0.0995282
0.100131
0.10069
0.101205
0.101679
0.102114
0.102511
0.102871
0.103196
0.103488
0.103748
0.103978
0.104179
0.104353
0.104501
0.104624
0.104724
0.104802
0.104859
0.104896
0.104915
0.104916
0.104901
0.104871
0.104826
0.104768
0.104697
0.104614
0.104521
0.104416
0.104303
0.10418
0.104049
0.10391
0.103764
0.103611
0.103452
0.103287
0.103116
0.102941
0.10276
0.102575
0.102386
0.102193
0.101996
0.101796
0.101593
0.101386
0.101177
0.100965
0.100751
0.100534
0.100315
0.100095
0.0998716
0.0996469
0.0994203
0.0991921
0.0989624
0.0987312
0.0984988
0.0982653
0.0980308
0.0977958
0.0975603
0.0973249
0.0970899
0.0968557
0.0966229
0.0963919
0.096163
0.0959358
0.0957094
0.0954793
0.0952426
0.0949704
0.094695
0.0941604
-0.00178716
-0.00205354
-0.002577
-0.00319255
-0.00375104
-0.00424315
-0.00469457
-0.00512394
-0.00554391
-0.00596452
-0.00639299
-0.00683419
-0.00729049
-0.00776249
-0.00824891
-0.0087474
-0.00925444
-0.00976608
-0.0102775
-0.0107838
-0.0112794
-0.0117586
-0.0122152
-0.0126434
-0.0130364
-0.0133884
-0.0136926
-0.0139431
-0.0141334
-0.0142579
-0.0143106
-0.0142862
-0.0141795
-0.013986
-0.0137012
-0.0133215
-0.0128435
-0.0122648
-0.0115829
-0.0107967
-0.00990509
-0.00890801
-0.00780553
-0.0065988
-0.00528911
-0.00387873
-0.00237009
-0.000766475
0.000928655
0.00271115
0.00457672
0.00652047
0.00853745
0.0106222
0.0127693
0.0149729
0.0172272
0.0195262
0.021864
0.0242344
0.0266314
0.029049
0.0314813
0.0339225
0.0363669
0.0388089
0.0412435
0.0436654
0.0460698
0.0484522
0.0508079
0.0531326
0.0554225
0.0576741
0.059884
0.0620492
0.0641669
0.0662345
0.0682499
0.0702111
0.0721164
0.0739643
0.0757537
0.0774835
0.0791531
0.0807619
0.0823097
0.0837963
0.0852217
0.0865864
0.0878908
0.0891353
0.0903206
0.0914475
0.0925168
0.0935297
0.0944873
0.0953907
0.0962413
0.0970403
0.0977893
0.0984895
0.0991426
0.09975
0.100313
0.100834
0.101314
0.101755
0.102158
0.102525
0.102857
0.103156
0.103423
0.10366
0.103869
0.10405
0.104205
0.104336
0.104444
0.104529
0.104594
0.104638
0.104665
0.104674
0.104666
0.104643
0.104606
0.104555
0.104491
0.104415
0.104328
0.104231
0.104123
0.104007
0.103882
0.103749
0.103609
0.103462
0.103308
0.103149
0.102983
0.102813
0.102637
0.102457
0.102272
0.102083
0.101891
0.101695
0.101495
0.101293
0.101087
0.100879
0.100668
0.100454
0.100238
0.10002
0.0998001
0.0995777
0.0993534
0.0991273
0.0988993
0.0986697
0.0984386
0.0982059
0.097972
0.0977369
0.0975008
0.0972639
0.0970264
0.0967884
0.0965502
0.0963117
0.0960725
0.0958315
0.0955866
0.0953324
0.0950643
0.0947548
0.0944323
0.0938619
-0.00298097
-0.00320434
-0.00364992
-0.00419085
-0.00470005
-0.00516251
-0.00559579
-0.00601358
-0.00642552
-0.00683991
-0.00726289
-0.00769842
-0.00814819
-0.00861236
-0.0090895
-0.00957733
-0.0100725
-0.0105712
-0.0110688
-0.0115606
-0.0120408
-0.0125037
-0.012943
-0.0133526
-0.013726
-0.0140568
-0.0143386
-0.0145652
-0.0147303
-0.014828
-0.0148525
-0.0147986
-0.0146612
-0.014436
-0.0141186
-0.0137057
-0.0131941
-0.0125816
-0.0118662
-0.011047
-0.010123
-0.00909456
-0.0079619
-0.00672644
-0.00538971
-0.00395418
-0.00242248
-0.000797979
0.000915796
0.00271461
0.00459412
0.00654945
0.00857561
0.0106672
0.0128188
0.0150247
0.0172791
0.0195762
0.02191
0.0242746
0.0266642
0.0290728
0.0314947
0.0339241
0.0363555
0.0387838
0.0412038
0.0436105
0.0459992
0.0483655
0.0507047
0.0530126
0.0552858
0.0575208
0.0597144
0.0618636
0.0639656
0.0660182
0.068019
0.0699662
0.0718582
0.0736935
0.075471
0.0771898
0.0788491
0.0804485
0.0819877
0.0834664
0.0848849
0.0862434
0.0875425
0.0887825
0.089964
0.0910879
0.092155
0.0931664
0.0941232
0.0950265
0.0958776
0.0966779
0.0974285
0.0981311
0.0987871
0.0993979
0.0999651
0.10049
0.100975
0.101421
0.101829
0.102201
0.102539
0.102844
0.103118
0.103361
0.103576
0.103764
0.103927
0.104064
0.104179
0.104271
0.104343
0.104395
0.104428
0.104444
0.104443
0.104427
0.104396
0.104352
0.104295
0.104226
0.104145
0.104054
0.103953
0.103842
0.103724
0.103596
0.103462
0.10332
0.103172
0.103017
0.102857
0.102691
0.10252
0.102344
0.102164
0.101979
0.101791
0.101599
0.101403
0.101204
0.101002
0.100797
0.100589
0.100378
0.100165
0.0999499
0.0997321
0.0995121
0.09929
0.0990658
0.0988395
0.0986113
0.0983813
0.0981494
0.0979158
0.0976804
0.0974435
0.0972049
0.0969647
0.0967228
0.0964789
0.0962327
0.0959831
0.0957282
0.0954653
0.0951881
0.0948911
0.0945478
0.0941839
0.0935845
-0.00423262
-0.00440977
-0.00476968
-0.00522222
-0.00566467
-0.00607858
-0.00647473
-0.00686337
-0.00725177
-0.00764609
-0.0080508
-0.00846878
-0.0089011
-0.00934758
-0.00980664
-0.010276
-0.0107526
-0.0112325
-0.0117111
-0.0121832
-0.0126431
-0.0130848
-0.013502
-0.0138884
-0.0142373
-0.0145424
-0.0147971
-0.0149952
-0.0151303
-0.0151968
-0.0151888
-0.0151014
-0.0149296
-0.0146694
-0.0143166
-0.0138682
-0.0133213
-0.0126739
-0.0119245
-0.0110723
-0.0101166
-0.00905792
-0.00789677
-0.00663479
-0.00527366
-0.00381603
-0.00226459
-0.000622868
0.00110554
0.00291639
0.00480531
0.00676744
0.00879784
0.0108912
0.0130421
0.015245
0.0174943
0.0197841
0.0221087
0.0244623
0.0268391
0.0292335
0.0316398
0.0340523
0.0364662
0.0388761
0.0412769
0.0436638
0.0460325
0.0483782
0.0506966
0.0529838
0.0552365
0.0574512
0.0596249
0.0617546
0.0638377
0.065872
0.0678551
0.0697854
0.0716613
0.0734813
0.0752443
0.0769495
0.0785962
0.0801839
0.0817122
0.0831811
0.0845906
0.0859411
0.087233
0.0884667
0.0896428
0.0907622
0.0918256
0.0928341
0.0937887
0.0946907
0.0955411
0.0963414
0.0970927
0.0977966
0.0984543
0.0990676
0.0996377
0.100166
0.100655
0.101105
0.101517
0.101894
0.102238
0.102548
0.102827
0.103077
0.103298
0.103492
0.103661
0.103805
0.103926
0.104025
0.104103
0.104161
0.104201
0.104224
0.10423
0.10422
0.104196
0.104158
0.104107
0.104044
0.103969
0.103884
0.103789
0.103685
0.103571
0.10345
0.10332
0.103184
0.103041
0.102891
0.102735
0.102574
0.102408
0.102236
0.10206
0.10188
0.101695
0.101507
0.101315
0.101119
0.10092
0.100718
0.100514
0.100306
0.100096
0.0998829
0.0996675
0.0994497
0.0992296
0.0990072
0.0987826
0.0985557
0.0983267
0.0980955
0.0978621
0.0976264
0.0973885
0.0971481
0.096905
0.096659
0.0964095
0.0961554
0.0958955
0.0956272
0.0953471
0.0950483
0.0947245
0.094351
0.0939508
0.0933276