/*--------------------------------*- C++ -*----------------------------------*\
  =========                 |
  \\      /  F ield         | OpenFOAM: The Open Source CFD Toolbox
   \\    /   O peration     | Website:  https://openfoam.org
    \\  /    A nd           | Version:  6
     \\/     M anipulation  |
\*---------------------------------------------------------------------------*/
FoamFile
{
    version     2.0;
    format      ascii;
    class       surfaceScalarField;
    location    "235";
    object      phi;
}
// * * * * * * * * * * * * * * * * * * * * * * * * * * * * * * * * * * * * * //

dimensions      [0 3 -1 0 0 0 0];

internalField   nonuniform List<scalar> 
24170
(
2.01642e-08
-1.22098e-08
3.07862e-08
-1.0622e-08
3.94753e-08
-8.68914e-09
4.68698e-08
-7.39449e-09
5.30992e-08
-6.22943e-09
5.82021e-08
-5.10298e-09
6.23678e-08
-4.1657e-09
6.57827e-08
-3.41492e-09
6.86069e-08
-2.82417e-09
7.09731e-08
-2.36628e-09
7.29948e-08
-2.02167e-09
7.47764e-08
-1.78164e-09
7.64289e-08
-1.6525e-09
7.80971e-08
-1.66824e-09
8.00245e-08
-1.92744e-09
8.27757e-08
-2.75125e-09
8.77778e-08
-5.00213e-09
-1.37041e-08
1.01482e-07
4.02762e-08
-2.66408e-08
5.5046e-08
-2.53919e-08
6.73454e-08
-2.09886e-08
7.79375e-08
-1.79866e-08
8.69529e-08
-1.52449e-08
9.4608e-08
-1.27582e-08
1.01116e-07
-1.06734e-08
1.06676e-07
-8.975e-09
1.11463e-07
-7.61144e-09
1.15628e-07
-6.53089e-09
1.19301e-07
-5.69536e-09
1.22606e-07
-5.08689e-09
1.25669e-07
-4.71519e-09
1.28641e-07
-4.64006e-09
1.31736e-07
-5.02293e-09
1.35297e-07
-6.31247e-09
1.39763e-07
-9.46806e-09
-1.7145e-08
1.43204e-07
5.88392e-08
-3.84344e-08
7.39572e-08
-4.05099e-08
8.75965e-08
-3.46279e-08
9.9257e-08
-2.96471e-08
1.09229e-07
-2.52165e-08
1.17802e-07
-2.13317e-08
1.25193e-07
-1.80645e-08
1.31594e-07
-1.5376e-08
1.37175e-07
-1.31919e-08
1.42083e-07
-1.14394e-08
1.46452e-07
-1.00641e-08
1.50403e-07
-9.03795e-09
1.54057e-07
-8.36925e-09
1.57544e-07
-8.12688e-09
1.61007e-07
-8.48642e-09
1.64557e-07
-9.86237e-09
1.6802e-07
-1.29314e-08
-1.87155e-08
1.69591e-07
8.059e-08
-4.70575e-08
9.43647e-08
-5.42846e-08
1.08032e-07
-4.82954e-08
1.20005e-07
-4.16197e-08
1.30374e-07
-3.55855e-08
1.39385e-07
-3.03432e-08
1.47234e-07
-2.59132e-08
1.54095e-07
-2.22365e-08
1.60124e-07
-1.92217e-08
1.65464e-07
-1.67795e-08
1.70242e-07
-1.48414e-08
1.74572e-07
-1.33687e-08
1.78566e-07
-1.23629e-08
1.82325e-07
-1.18861e-08
1.85929e-07
-1.20906e-08
1.89351e-07
-1.32843e-08
1.92253e-07
-1.5833e-08
-1.99262e-08
1.93464e-07
1.0647e-07
-5.24808e-08
1.18165e-07
-6.59797e-08
1.30981e-07
-6.11106e-08
1.42719e-07
-5.33585e-08
1.53105e-07
-4.59715e-08
1.6225e-07
-3.94883e-08
1.70298e-07
-3.39608e-08
1.77393e-07
-2.93314e-08
1.83673e-07
-2.55018e-08
1.89266e-07
-2.23728e-08
1.9429e-07
-1.98649e-08
1.9885e-07
-1.79286e-08
2.03041e-07
-1.65536e-08
2.06937e-07
-1.57829e-08
2.10571e-07
-1.57238e-08
2.13849e-07
-1.65629e-08
2.16443e-07
-1.84264e-08
-2.11275e-08
2.17644e-07
1.37181e-07
-5.4918e-08
1.46345e-07
-7.51437e-08
1.57644e-07
-7.24091e-08
1.68643e-07
-6.43576e-08
1.78677e-07
-5.60057e-08
1.87668e-07
-4.84793e-08
1.95677e-07
-4.19699e-08
2.02804e-07
-3.64585e-08
2.09159e-07
-3.18569e-08
2.14851e-07
-2.80648e-08
2.19982e-07
-2.49959e-08
2.24644e-07
-2.25906e-08
2.28914e-07
-2.08236e-08
2.32842e-07
-1.97112e-08
2.36427e-07
-1.93084e-08
2.39558e-07
-1.96937e-08
2.41967e-07
-2.08357e-08
-2.24153e-08
2.43255e-07
1.73375e-07
-5.47646e-08
1.79708e-07
-8.14767e-08
1.88954e-07
-8.1656e-08
1.98719e-07
-7.41223e-08
2.08012e-07
-6.52981e-08
2.16539e-07
-5.70066e-08
2.24254e-07
-4.96854e-08
2.31198e-07
-4.34021e-08
2.37442e-07
-3.8101e-08
2.4307e-07
-3.36924e-08
2.48163e-07
-3.00891e-08
2.52796e-07
-2.72236e-08
2.57027e-07
-2.50546e-08
2.60885e-07
-2.35693e-08
2.64349e-07
-2.27725e-08
2.67315e-07
-2.26592e-08
2.69589e-07
-2.31096e-08
-2.37939e-08
2.70967e-07
2.15626e-07
-5.25212e-08
2.1898e-07
-8.48312e-08
2.25757e-07
-8.84327e-08
2.33813e-07
-8.21786e-08
2.4195e-07
-7.34348e-08
2.4967e-07
-6.47272e-08
2.56806e-07
-5.68207e-08
2.63322e-07
-4.99185e-08
2.69244e-07
-4.40236e-08
2.74623e-07
-3.90712e-08
2.79516e-07
-3.49813e-08
2.83974e-07
-3.16819e-08
2.88037e-07
-2.91174e-08
2.91715e-07
-2.72482e-08
2.9498e-07
-2.60372e-08
2.97744e-07
-2.54228e-08
2.9988e-07
-2.52457e-08
-2.52176e-08
3.01304e-07
2.64425e-07
-4.87278e-08
2.64827e-07
-8.52333e-08
2.68839e-07
-9.24439e-08
2.74753e-07
-8.80933e-08
2.8131e-07
-7.99916e-08
2.87852e-07
-7.12687e-08
2.94086e-07
-6.30552e-08
2.99898e-07
-5.57305e-08
3.05258e-07
-4.93832e-08
3.10175e-07
-4.39888e-08
3.14678e-07
-3.94841e-08
3.18794e-07
-3.57982e-08
3.22542e-07
-3.28654e-08
3.25919e-07
-3.06249e-08
3.28891e-07
-2.90093e-08
3.31392e-07
-2.79233e-08
3.33347e-07
-2.72008e-08
-2.6608e-08
3.34737e-07
3.20175e-07
-4.39165e-08
3.17826e-07
-8.28843e-08
3.18911e-07
-9.35293e-08
3.22321e-07
-9.1503e-08
3.26887e-07
-8.45581e-08
3.31862e-07
-7.62432e-08
3.36847e-07
-6.804e-08
3.41645e-07
-6.05291e-08
3.46168e-07
-5.3906e-08
3.50381e-07
-4.82023e-08
3.54279e-07
-4.33814e-08
3.57862e-07
-3.93811e-08
3.61128e-07
-3.61314e-08
3.64061e-07
-3.3558e-08
3.66627e-07
-3.15753e-08
3.68777e-07
-3.00736e-08
3.70473e-07
-2.8897e-08
-2.78626e-08
3.71728e-07
3.83152e-07
-3.85656e-08
3.78404e-07
-7.81367e-08
3.76558e-07
-9.16834e-08
3.77203e-07
-9.21473e-08
3.79414e-07
-8.67691e-08
3.82438e-07
-7.92677e-08
3.85809e-07
-7.14111e-08
3.8926e-07
-6.39803e-08
3.92645e-07
-5.72902e-08
3.95883e-07
-5.14403e-08
3.98932e-07
-4.64304e-08
4.01765e-07
-4.22143e-08
4.04359e-07
-3.87255e-08
4.06686e-07
-3.58848e-08
4.0871e-07
-3.35996e-08
4.10396e-07
-3.1759e-08
4.11725e-07
-3.02263e-08
-2.88591e-08
4.12721e-07
3.77896e-07
-3.37711e-08
3.72447e-07
-7.26881e-08
3.6874e-07
-8.7976e-08
3.6705e-07
-9.04572e-08
3.66883e-07
-8.66018e-08
3.67667e-07
-8.00521e-08
3.68995e-07
-7.27395e-08
3.70608e-07
-6.55929e-08
3.72343e-07
-5.90257e-08
3.74102e-07
-5.31989e-08
3.7582e-07
-4.81484e-08
3.77453e-07
-4.38475e-08
3.78966e-07
-4.02377e-08
3.80323e-07
-3.72427e-08
3.81495e-07
-3.47711e-08
3.82454e-07
-3.27181e-08
3.8319e-07
-3.0962e-08
-2.94008e-08
3.83731e-07
4.99943e-07
-2.84382e-08
4.9235e-07
-6.50953e-08
4.85907e-07
-8.15329e-08
4.81448e-07
-8.5998e-08
4.78789e-07
-8.39432e-08
4.77443e-07
-7.87061e-08
4.76977e-07
-7.22731e-08
4.77079e-07
-6.5695e-08
4.77536e-07
-5.94831e-08
4.78203e-07
-5.38661e-08
4.78979e-07
-4.89241e-08
4.79789e-07
-4.46571e-08
4.80573e-07
-4.1022e-08
4.81282e-07
-3.79518e-08
4.81875e-07
-3.53635e-08
4.82321e-07
-3.31641e-08
4.82611e-07
-3.12527e-08
-2.95543e-08
4.82765e-07
6.62104e-07
-2.2795e-08
6.52295e-07
-5.52858e-08
6.42577e-07
-7.18154e-08
6.3444e-07
-7.78606e-08
6.28172e-07
-7.76755e-08
6.23524e-07
-7.40581e-08
6.20125e-07
-6.88741e-08
6.17652e-07
-6.32224e-08
6.15856e-07
-5.76863e-08
6.14546e-07
-5.25562e-08
6.13579e-07
-4.79578e-08
6.12846e-07
-4.39235e-08
6.12256e-07
-4.04326e-08
6.11739e-07
-3.74346e-08
6.11238e-07
-3.4862e-08
6.10712e-07
-3.26389e-08
6.10148e-07
-3.06879e-08
-2.89521e-08
6.09545e-07
8.74725e-07
-1.70539e-08
8.62909e-07
-4.347e-08
8.49632e-07
-5.85377e-08
8.37047e-07
-6.52763e-08
8.2603e-07
-6.66585e-08
8.16739e-07
-6.47669e-08
8.09005e-07
-6.11405e-08
8.02579e-07
-5.67959e-08
7.97218e-07
-5.23249e-08
7.9271e-07
-4.80491e-08
7.88881e-07
-4.41282e-08
7.85582e-07
-4.06249e-08
7.82693e-07
-3.75438e-08
7.80115e-07
-3.48565e-08
7.77769e-07
-3.2516e-08
7.75598e-07
-3.04678e-08
7.73567e-07
-2.86572e-08
-2.70429e-08
7.71658e-07
1.14729e-06
-1.13126e-08
1.13381e-06
-2.99931e-08
1.11702e-06
-4.17393e-08
1.09956e-06
-4.78181e-08
1.0829e-06
-4.9996e-08
1.06771e-06
-4.95799e-08
1.05418e-06
-4.76167e-08
1.04227e-06
-4.48817e-08
1.03182e-06
-4.18704e-08
1.02264e-06
-3.88736e-08
1.01456e-06
-3.60505e-08
1.00742e-06
-3.34772e-08
1.00105e-06
-3.11771e-08
9.95335e-07
-2.91425e-08
9.90167e-07
-2.73485e-08
9.85462e-07
-2.57626e-08
9.81157e-07
-2.43517e-08
-2.30894e-08
9.77203e-07
1.48365e-06
-5.42429e-09
1.46868e-06
-1.50188e-08
1.44853e-06
-2.15919e-08
1.42613e-06
-2.54163e-08
1.4034e-06
-2.72599e-08
1.38151e-06
-2.76981e-08
1.36111e-06
-2.72152e-08
1.34244e-06
-2.62133e-08
1.32555e-06
-2.49726e-08
1.31034e-06
-2.36669e-08
1.29669e-06
-2.23979e-08
1.28443e-06
-2.12189e-08
1.2734e-06
-2.01518e-08
1.26346e-06
-1.91987e-08
1.25446e-06
-1.83508e-08
1.24629e-06
-1.75944e-08
1.23886e-06
-1.69153e-08
-1.63021e-08
1.23207e-06
1.87155e-06
1.09649e-09
1.85471e-06
1.8206e-09
1.83105e-06
2.06957e-09
1.80367e-06
1.96326e-09
1.77486e-06
1.54879e-09
1.74622e-06
9.40224e-10
1.71877e-06
2.32446e-10
1.69308e-06
-5.18761e-10
1.66939e-06
-1.27844e-09
1.64774e-06
-2.0227e-09
1.62808e-06
-2.73578e-09
1.61027e-06
-3.40746e-09
1.59415e-06
-4.031e-09
1.57955e-06
-4.60186e-09
1.56632e-06
-5.11727e-09
1.5543e-06
-5.57648e-09
1.54336e-06
-5.98098e-09
-6.33199e-09
1.53339e-06
2.26211e-06
7.73547e-09
2.24227e-06
2.16658e-08
2.21381e-06
3.05322e-08
2.18083e-06
3.49395e-08
2.1462e-06
3.61836e-08
2.11183e-06
3.53028e-08
2.07895e-06
3.31156e-08
2.04819e-06
3.02361e-08
2.01984e-06
2.70742e-08
1.99394e-06
2.38828e-08
1.97039e-06
2.08102e-08
1.94905e-06
1.79375e-08
1.92971e-06
1.53029e-08
1.91219e-06
1.29184e-08
1.89629e-06
1.07803e-08
1.88184e-06
8.87596e-09
1.86867e-06
7.18756e-09
5.69205e-09
1.85665e-06
1.55413e-06
1.55655e-08
1.53646e-06
3.93319e-08
1.51401e-06
5.29876e-08
1.49009e-06
5.88562e-08
1.46665e-06
5.96292e-08
1.44468e-06
5.72731e-08
1.42459e-06
5.31972e-08
1.40648e-06
4.83507e-08
1.39024e-06
4.33101e-08
1.37573e-06
3.84e-08
1.36274e-06
3.37918e-08
1.35112e-06
2.95647e-08
1.34068e-06
2.57436e-08
1.33127e-06
2.23228e-08
1.32277e-06
1.92798e-08
1.31506e-06
1.65845e-08
1.30805e-06
1.42032e-08
1.21008e-08
1.30164e-06
1.23267e-06
2.37776e-08
1.21571e-06
5.62879e-08
1.19657e-06
7.21368e-08
1.1783e-06
7.712e-08
1.16208e-06
7.58494e-08
1.14813e-06
7.12223e-08
1.13626e-06
6.50658e-08
1.12616e-06
5.84543e-08
1.11751e-06
5.19608e-08
1.11004e-06
4.58674e-08
1.10354e-06
4.02965e-08
1.09782e-06
3.52836e-08
1.09275e-06
3.08169e-08
1.08821e-06
2.68614e-08
1.08411e-06
2.3372e-08
1.0804e-06
2.0301e-08
1.077e-06
1.76014e-08
1.52272e-08
1.07387e-06
9.49407e-07
3.27302e-08
9.34623e-07
7.1071e-08
9.20906e-07
8.58537e-08
9.10072e-07
8.79542e-08
9.02116e-07
8.38055e-08
8.9647e-07
7.68684e-08
8.92499e-07
6.90367e-08
8.8969e-07
6.12634e-08
8.87671e-07
5.39798e-08
8.86182e-07
4.7356e-08
8.85045e-07
4.14334e-08
8.84139e-07
3.61902e-08
8.8338e-07
3.15757e-08
8.82713e-07
2.75279e-08
8.82102e-07
2.39834e-08
8.81521e-07
2.08818e-08
8.80954e-07
1.81682e-08
1.57908e-08
8.80391e-07
7.11922e-07
4.17532e-08
7.01399e-07
8.15939e-08
6.94865e-07
9.23881e-08
6.92175e-07
9.06434e-08
6.92208e-07
8.37728e-08
6.93882e-07
7.5194e-08
6.96419e-07
6.65002e-08
6.99328e-07
5.83543e-08
7.02318e-07
5.09899e-08
7.0522e-07
4.44538e-08
7.07942e-07
3.87111e-08
7.10439e-07
3.36935e-08
7.12693e-07
2.93218e-08
7.14703e-07
2.55175e-08
7.16479e-07
2.22071e-08
7.18036e-07
1.93252e-08
7.19389e-07
1.68148e-08
1.46239e-08
7.20556e-07
5.20138e-07
4.94864e-08
5.15847e-07
8.5885e-08
5.17182e-07
9.10534e-08
5.22058e-07
8.57677e-08
5.28696e-07
7.7135e-08
5.35927e-07
6.79625e-08
5.43106e-07
5.93214e-08
5.49911e-07
5.15489e-08
5.56197e-07
4.47038e-08
5.61912e-07
3.87389e-08
5.67054e-07
3.35688e-08
5.7165e-07
2.90982e-08
5.75736e-07
2.52353e-08
5.79358e-07
2.1896e-08
5.82558e-07
1.90063e-08
5.85382e-07
1.6502e-08
5.87867e-07
1.43292e-08
1.24402e-08
5.90051e-07
3.70077e-07
5.42224e-08
3.73136e-07
8.28261e-08
3.8176e-07
8.24298e-08
3.92636e-07
7.4891e-08
4.03934e-07
6.58375e-08
4.14757e-07
5.71396e-08
4.24747e-07
4.93313e-08
4.33795e-07
4.25008e-08
4.41902e-07
3.6597e-08
4.49118e-07
3.15231e-08
4.55514e-07
2.7172e-08
4.61171e-07
2.34417e-08
4.66165e-07
2.0241e-08
4.70571e-07
1.74905e-08
4.74455e-07
1.51221e-08
4.77879e-07
1.30782e-08
4.80896e-07
1.13116e-08
9.78219e-09
4.83554e-07
2.55928e-07
5.43544e-08
2.66258e-07
7.24961e-08
2.80619e-07
6.80681e-08
2.95478e-07
6.00321e-08
3.09444e-07
5.18719e-08
3.22093e-07
4.44904e-08
3.33376e-07
3.80483e-08
3.43362e-07
3.25144e-08
3.52163e-07
2.77963e-08
3.59901e-07
2.37855e-08
3.66696e-07
2.03768e-08
3.72661e-07
1.74764e-08
3.77899e-07
1.50037e-08
3.82498e-07
1.28907e-08
3.8654e-07
1.10803e-08
3.90094e-07
9.52438e-09
3.93221e-07
8.18462e-09
7.03097e-09
3.95972e-07
1.71334e-07
4.87306e-08
1.87744e-07
5.6087e-08
2.05721e-07
5.0091e-08
2.22519e-07
4.32338e-08
2.37439e-07
3.69517e-08
2.5053e-07
3.13994e-08
2.61973e-07
2.66055e-08
2.71952e-07
2.25354e-08
2.80645e-07
1.91032e-08
2.88217e-07
1.62135e-08
2.94816e-07
1.37782e-08
3.00571e-07
1.17215e-08
3.05595e-07
9.97976e-09
3.09985e-07
8.5004e-09
3.13825e-07
7.23996e-09
3.17188e-07
6.16172e-09
3.20136e-07
5.23641e-09
4.44562e-09
3.22721e-07
1.10199e-07
3.68176e-08
1.30549e-07
3.57372e-08
1.49687e-07
3.09532e-08
1.66585e-07
2.63357e-08
1.81123e-07
2.24133e-08
1.93641e-07
1.88814e-08
2.0443e-07
1.58173e-08
2.13726e-07
1.32391e-08
2.21741e-07
1.10883e-08
2.28659e-07
9.29566e-09
2.34637e-07
7.79933e-09
2.39812e-07
6.54682e-09
2.44297e-07
5.49498e-09
2.48189e-07
4.60872e-09
2.51569e-07
3.85943e-09
2.54508e-07
3.22266e-09
2.57067e-07
2.67719e-09
2.21558e-09
2.59297e-07
6.69177e-08
1.88915e-08
8.76497e-08
1.50052e-08
1.05221e-07
1.33823e-08
1.20538e-07
1.10187e-08
1.33568e-07
9.38284e-09
1.44649e-07
7.80049e-09
1.54066e-07
6.40043e-09
1.62068e-07
5.23696e-09
1.68875e-07
4.2808e-09
1.74676e-07
3.49552e-09
1.79625e-07
2.84969e-09
1.83855e-07
2.31702e-09
1.87474e-07
1.87617e-09
1.90572e-07
1.51019e-09
1.93226e-07
1.20534e-09
1.95499e-07
9.50021e-10
1.97445e-07
7.31378e-10
5.45468e-10
1.99115e-07
3.26839e-08
4.76892e-08
6.10714e-08
7.20901e-08
8.1473e-08
8.92734e-08
9.56739e-08
1.00911e-07
1.05192e-07
1.08687e-07
1.11537e-07
1.13854e-07
1.1573e-07
1.1724e-07
1.18446e-07
1.19396e-07
1.20127e-07
1.20672e-07
1.80091e-09
-1.80066e-09
4.9291e-09
-3.1278e-09
7.8071e-09
-2.87756e-09
9.74531e-09
-1.93791e-09
1.0545e-08
-7.99268e-10
1.02569e-08
2.88317e-10
9.05381e-09
1.20355e-09
7.13309e-09
1.92087e-09
4.65362e-09
2.47992e-09
1.71382e-09
2.93984e-09
-1.6473e-09
3.36153e-09
-5.44387e-09
3.79646e-09
-9.70293e-09
4.25945e-09
-1.44519e-08
4.74877e-09
-1.97138e-08
5.2623e-09
-2.55045e-08
5.79036e-09
-3.18227e-08
6.31872e-09
-3.86543e-08
6.83116e-09
-4.59647e-08
7.31097e-09
-5.37081e-08
7.74276e-09
-6.18209e-08
8.11336e-09
-7.02343e-08
8.41258e-09
-7.88672e-08
8.63328e-09
-8.76398e-08
8.77158e-09
-9.64662e-08
8.82679e-09
-1.05269e-07
8.80116e-09
-1.13967e-07
8.69913e-09
-1.22495e-07
8.52663e-09
-1.30785e-07
8.29065e-09
-1.38785e-07
7.99892e-09
-1.46443e-07
7.65926e-09
-1.53724e-07
7.27931e-09
-1.60589e-07
6.86629e-09
-1.67017e-07
6.42681e-09
-1.72982e-07
5.96676e-09
-1.78474e-07
5.49121e-09
-1.83477e-07
5.00452e-09
-1.87988e-07
4.51016e-09
-1.91997e-07
4.01092e-09
-1.95507e-07
3.50873e-09
-1.98511e-07
3.00517e-09
-2.01012e-07
2.50121e-09
-2.03009e-07
1.99768e-09
-2.04504e-07
1.49451e-09
-2.05494e-07
9.91349e-10
-2.05984e-07
4.8949e-10
-2.05982e-07
-6.91424e-13
-2.05528e-07
-4.5475e-10
-2.04659e-07
-8.67004e-10
-2.03407e-07
-1.25262e-09
-2.01788e-07
-1.61799e-09
-1.99821e-07
-1.96707e-09
-1.97519e-07
-2.30134e-09
-1.94897e-07
-2.62173e-09
-1.91967e-07
-2.92833e-09
-1.88746e-07
-3.22141e-09
-1.85244e-07
-3.50071e-09
-1.81477e-07
-3.76629e-09
-1.77457e-07
-4.01787e-09
-1.73201e-07
-4.25555e-09
-1.6872e-07
-4.47908e-09
-1.64031e-07
-4.68858e-09
-1.59145e-07
-4.88392e-09
-1.54078e-07
-5.06528e-09
-1.48844e-07
-5.23264e-09
-1.43456e-07
-5.38632e-09
-1.37928e-07
-5.52641e-09
-1.32273e-07
-5.65326e-09
-1.26505e-07
-5.76679e-09
-1.20637e-07
-5.86689e-09
-1.14682e-07
-5.95401e-09
-1.08652e-07
-6.02858e-09
-1.02559e-07
-6.09099e-09
-9.64161e-08
-6.14154e-09
-9.02341e-08
-6.18053e-09
-8.40237e-08
-6.20835e-09
-7.77966e-08
-6.22539e-09
-7.15621e-08
-6.23205e-09
-6.53314e-08
-6.22878e-09
-5.91127e-08
-6.21598e-09
-5.29166e-08
-6.1941e-09
-4.67501e-08
-6.16359e-09
-4.06233e-08
-6.12497e-09
-3.45417e-08
-6.07861e-09
-2.85148e-08
-6.02492e-09
-2.25477e-08
-5.96429e-09
-1.66486e-08
-5.89754e-09
-1.08231e-08
-5.82391e-09
-5.08296e-09
-5.73989e-09
5.59768e-10
-5.64302e-09
6.11677e-09
-5.55654e-09
1.15929e-08
-5.47464e-09
1.69718e-08
-5.37697e-09
2.22459e-08
-5.27189e-09
2.74102e-08
-5.16197e-09
3.24608e-08
-5.04825e-09
3.73946e-08
-4.9315e-09
4.2209e-08
-4.81204e-09
4.69018e-08
-4.69034e-09
5.14709e-08
-4.56657e-09
5.59146e-08
-4.44121e-09
6.02319e-08
-4.31433e-09
6.44214e-08
-4.18645e-09
6.84823e-08
-4.05751e-09
7.24135e-08
-3.92811e-09
7.62149e-08
-3.79813e-09
7.98856e-08
-3.66822e-09
8.34262e-08
-3.53822e-09
8.68366e-08
-3.40875e-09
9.01179e-08
-3.27959e-09
9.32702e-08
-3.15136e-09
9.62951e-08
-3.0238e-09
9.91931e-08
-2.89752e-09
1.01966e-07
-2.77227e-09
1.04615e-07
-2.64861e-09
1.07141e-07
-2.52628e-09
1.09547e-07
-2.40577e-09
1.11834e-07
-2.28685e-09
1.14003e-07
-2.17003e-09
1.16058e-07
-2.05521e-09
1.18e-07
-1.94274e-09
1.19833e-07
-1.83246e-09
1.21558e-07
-1.72465e-09
1.23178e-07
-1.61908e-09
1.24694e-07
-1.51615e-09
1.2611e-07
-1.41562e-09
1.27428e-07
-1.31784e-09
1.2865e-07
-1.22254e-09
1.2978e-07
-1.13003e-09
1.3082e-07
-1.04006e-09
1.31772e-07
-9.52918e-10
1.3264e-07
-8.68327e-10
1.33426e-07
-7.86574e-10
1.34133e-07
-7.07438e-10
1.34763e-07
-6.31144e-10
1.3532e-07
-5.5746e-10
1.35805e-07
-4.86581e-10
1.36222e-07
-4.18239e-10
1.36574e-07
-3.52542e-10
1.36861e-07
-2.89257e-10
1.37088e-07
-2.28367e-10
1.37256e-07
-1.69667e-10
1.37368e-07
-1.12922e-10
1.37424e-07
-5.75545e-11
1.37424e-07
-1.04401e-12
1.37368e-07
5.55653e-11
1.37259e-07
1.07968e-10
1.37103e-07
1.55723e-10
1.36902e-07
1.99714e-10
1.36661e-07
2.40787e-10
1.36381e-07
2.79416e-10
1.36065e-07
3.16043e-10
1.35713e-07
3.50969e-10
1.35328e-07
3.84316e-10
1.34912e-07
4.16114e-10
1.34465e-07
4.46471e-10
1.33989e-07
4.75502e-10
1.33485e-07
5.03411e-10
1.32954e-07
5.30405e-10
1.32397e-07
5.56758e-10
1.31814e-07
5.82774e-10
1.31205e-07
6.08827e-10
1.30569e-07
6.3532e-10
1.29906e-07
6.62789e-10
1.29214e-07
6.91945e-10
1.2849e-07
7.23757e-10
1.2773e-07
7.59492e-10
1.26929e-07
8.0084e-10
1.26079e-07
8.5007e-10
1.25169e-07
9.10343e-10
1.24183e-07
9.86166e-10
1.23098e-07
1.08411e-09
1.21884e-07
1.21388e-09
1.20493e-07
1.39098e-09
1.18854e-07
1.63939e-09
1.16849e-07
2.00511e-09
1.14284e-07
2.56493e-09
1.10773e-07
3.51135e-09
1.05706e-07
5.0671e-09
8.53363e-09
9.71724e-08
1.81689e-09
-3.61717e-09
3.57424e-09
-4.88461e-09
3.90501e-09
-3.2078e-09
2.82396e-09
-8.56535e-10
5.41115e-10
1.48401e-09
-2.77317e-09
3.60283e-09
-7.00385e-09
5.43463e-09
-1.20659e-08
6.98302e-09
-1.78795e-08
8.29389e-09
-2.43723e-08
9.43271e-09
-3.14731e-08
1.04626e-08
-3.9107e-08
1.14303e-08
-4.72072e-08
1.23599e-08
-5.57153e-08
1.32567e-08
-6.45653e-08
1.41125e-08
-7.36863e-08
1.49113e-08
-8.30008e-08
1.56335e-08
-9.24293e-08
1.62595e-08
-1.0189e-07
1.67717e-08
-1.11303e-07
1.7156e-08
-1.20592e-07
1.74024e-08
-1.29686e-07
1.75058e-08
-1.38519e-07
1.74667e-08
-1.47038e-07
1.72903e-08
-1.55196e-07
1.6985e-08
-1.62957e-07
1.65617e-08
-1.70291e-07
1.60331e-08
-1.77177e-07
1.54126e-08
-1.836e-07
1.47138e-08
-1.89552e-07
1.395e-08
-1.95026e-07
1.31334e-08
-2.00022e-07
1.22754e-08
-2.04542e-07
1.13862e-08
-2.0859e-07
1.04745e-08
-2.1217e-07
9.5478e-09
-2.15292e-07
8.6124e-09
-2.1796e-07
7.67352e-09
-2.20185e-07
6.73539e-09
-2.21976e-07
5.80146e-09
-2.23341e-07
4.8745e-09
-2.24293e-07
3.95691e-09
-2.24842e-07
3.05069e-09
-2.25002e-07
2.15774e-09
-2.24788e-07
1.28007e-09
-2.24217e-07
4.21091e-10
-2.23314e-07
-4.13433e-10
-2.22097e-07
-1.21729e-09
-2.2056e-07
-1.99092e-09
-2.18689e-07
-2.73772e-09
-2.16483e-07
-3.45852e-09
-2.13947e-07
-4.1537e-09
-2.1109e-07
-4.82384e-09
-2.07922e-07
-5.46904e-09
-2.04454e-07
-6.0893e-09
-2.00697e-07
-6.68431e-09
-1.96665e-07
-7.25384e-09
-1.92367e-07
-7.79747e-09
-1.87818e-07
-8.31494e-09
-1.83029e-07
-8.80589e-09
-1.78014e-07
-9.27014e-09
-1.72784e-07
-9.70745e-09
-1.67355e-07
-1.01178e-08
-1.61736e-07
-1.0501e-08
-1.55943e-07
-1.08573e-08
-1.49988e-07
-1.11868e-08
-1.43884e-07
-1.14897e-08
-1.37643e-07
-1.17664e-08
-1.31278e-07
-1.20173e-08
-1.24802e-07
-1.22427e-08
-1.18225e-07
-1.24425e-08
-1.11561e-07
-1.26171e-08
-1.04822e-07
-1.27674e-08
-9.80178e-08
-1.28941e-08
-9.11607e-08
-1.29977e-08
-8.42613e-08
-1.3079e-08
-7.733e-08
-1.31385e-08
-7.03771e-08
-1.31771e-08
-6.34125e-08
-1.31954e-08
-5.64457e-08
-1.31943e-08
-4.94856e-08
-1.31746e-08
-4.25413e-08
-1.31371e-08
-3.56206e-08
-1.30827e-08
-2.8732e-08
-1.30123e-08
-2.18823e-08
-1.29267e-08
-1.50792e-08
-1.28267e-08
-8.32882e-09
-1.27131e-08
-1.63839e-09
-1.25868e-08
4.98735e-09
-1.24488e-08
1.15462e-08
-1.22986e-08
1.80379e-08
-1.21349e-08
2.44439e-08
-1.19621e-08
3.07501e-08
-1.17799e-08
3.69602e-08
-1.15858e-08
4.30714e-08
-1.13817e-08
4.90802e-08
-1.11693e-08
5.49833e-08
-1.09498e-08
6.07773e-08
-1.0724e-08
6.64594e-08
-1.04926e-08
7.2027e-08
-1.02563e-08
7.74777e-08
-1.00156e-08
8.28096e-08
-9.77119e-09
8.80208e-08
-9.52356e-09
9.31099e-08
-9.27324e-09
9.80754e-08
-9.02071e-09
1.02916e-07
-8.76648e-09
1.07631e-07
-8.51101e-09
1.1222e-07
-8.25482e-09
1.16681e-07
-7.9983e-09
1.21016e-07
-7.74191e-09
1.25223e-07
-7.48599e-09
1.29304e-07
-7.23098e-09
1.33258e-07
-6.97717e-09
1.37086e-07
-6.72496e-09
1.40788e-07
-6.47462e-09
1.44367e-07
-6.22651e-09
1.47821e-07
-5.98085e-09
1.51153e-07
-5.73797e-09
1.54364e-07
-5.49809e-09
1.57455e-07
-5.26152e-09
1.60428e-07
-5.02846e-09
1.63284e-07
-4.79915e-09
1.66026e-07
-4.57375e-09
1.68654e-07
-4.35249e-09
1.71171e-07
-4.13547e-09
1.73578e-07
-3.9229e-09
1.75878e-07
-3.71483e-09
1.78071e-07
-3.51144e-09
1.80161e-07
-3.31271e-09
1.8215e-07
-3.11881e-09
1.84039e-07
-2.92975e-09
1.85831e-07
-2.74563e-09
1.87529e-07
-2.56643e-09
1.89134e-07
-2.39226e-09
1.90649e-07
-2.2231e-09
1.92076e-07
-2.05902e-09
1.93418e-07
-1.89992e-09
1.94676e-07
-1.74582e-09
1.95854e-07
-1.59662e-09
1.96952e-07
-1.45227e-09
1.97974e-07
-1.31261e-09
1.98922e-07
-1.17748e-09
1.99797e-07
-1.0467e-09
2.00603e-07
-9.19983e-10
2.01342e-07
-7.96969e-10
2.02017e-07
-6.77266e-10
2.02633e-07
-5.60881e-10
2.03189e-07
-4.48651e-10
2.03685e-07
-3.41507e-10
2.04124e-07
-2.39427e-10
2.04506e-07
-1.42022e-10
2.04834e-07
-4.86502e-11
2.05108e-07
4.11459e-11
2.05331e-07
1.27325e-10
2.05505e-07
2.09922e-10
2.05632e-07
2.89258e-10
2.05712e-07
3.65623e-10
2.05748e-07
4.39304e-10
2.0574e-07
5.10636e-10
2.0569e-07
5.80014e-10
2.05599e-07
6.47909e-10
2.05467e-07
7.14916e-10
2.05293e-07
7.81732e-10
2.05079e-07
8.49176e-10
2.04823e-07
9.18299e-10
2.04525e-07
9.90482e-10
2.04181e-07
1.06759e-09
2.03788e-07
1.15204e-09
2.03342e-07
1.24709e-09
2.02834e-07
1.35707e-09
2.02257e-07
1.48804e-09
2.01594e-07
1.64849e-09
2.00828e-07
1.8507e-09
1.99929e-07
2.11271e-09
1.98858e-07
2.46232e-09
1.97554e-07
2.94363e-09
1.95929e-07
3.62961e-09
1.93827e-07
4.66765e-09
1.91063e-07
6.27541e-09
1.87129e-07
9.00127e-09
1.38124e-08
1.8185e-07
2.32187e-10
-3.84906e-09
-1.28917e-09
-3.36283e-09
-4.29744e-09
-1.99184e-10
-8.25217e-09
3.09837e-09
-1.29212e-08
6.15322e-09
-1.82223e-08
8.90405e-09
-2.41298e-08
1.13423e-08
-3.06279e-08
1.34812e-08
-3.76868e-08
1.5353e-08
-4.52557e-08
1.70016e-08
-5.32633e-08
1.84704e-08
-6.16253e-08
1.97922e-08
-7.02505e-08
2.09852e-08
-7.90472e-08
2.20533e-08
-8.7925e-08
2.29904e-08
-9.67985e-08
2.37847e-08
-1.05588e-07
2.44232e-08
-1.14223e-07
2.48945e-08
-1.22642e-07
2.51903e-08
-1.30793e-07
2.5307e-08
-1.38636e-07
2.52454e-08
-1.46142e-07
2.50114e-08
-1.53289e-07
2.46139e-08
-1.60063e-07
2.40648e-08
-1.66456e-07
2.33782e-08
-1.72464e-07
2.25692e-08
-1.78084e-07
2.16535e-08
-1.83318e-07
2.06466e-08
-1.88168e-07
1.95632e-08
-1.92635e-07
1.84172e-08
-1.96723e-07
1.72211e-08
-2.00434e-07
1.59863e-08
-2.0377e-07
1.47228e-08
-2.06735e-07
1.34391e-08
-2.09329e-07
1.21426e-08
-2.11557e-07
1.08398e-08
-2.13419e-07
9.53583e-09
-2.14919e-07
8.23537e-09
-2.1606e-07
6.94228e-09
-2.16845e-07
5.65994e-09
-2.17279e-07
4.39145e-09
-2.17368e-07
3.13962e-09
-2.17118e-07
1.90722e-09
-2.16535e-07
6.97119e-10
-2.15626e-07
-4.87404e-10
-2.14396e-07
-1.64314e-09
-2.12845e-07
-2.76814e-09
-2.10973e-07
-3.86276e-09
-2.08783e-07
-4.92735e-09
-2.0628e-07
-5.96102e-09
-2.03471e-07
-6.96285e-09
-2.00363e-07
-7.93197e-09
-1.96964e-07
-8.86749e-09
-1.93284e-07
-9.76858e-09
-1.89334e-07
-1.06344e-08
-1.85123e-07
-1.14642e-08
-1.80663e-07
-1.22572e-08
-1.75965e-07
-1.30128e-08
-1.7104e-07
-1.37305e-08
-1.65899e-07
-1.44098e-08
-1.60556e-07
-1.50503e-08
-1.55021e-07
-1.5652e-08
-1.49308e-07
-1.62145e-08
-1.43426e-07
-1.6738e-08
-1.3739e-07
-1.72227e-08
-1.3121e-07
-1.76688e-08
-1.24899e-07
-1.80768e-08
-1.18469e-07
-1.84472e-08
-1.11931e-07
-1.87805e-08
-1.05296e-07
-1.90769e-08
-9.85756e-08
-1.93367e-08
-9.17814e-08
-1.95611e-08
-8.49239e-08
-1.9751e-08
-7.80139e-08
-1.99073e-08
-7.10614e-08
-2.00309e-08
-6.40767e-08
-2.01227e-08
-5.70693e-08
-2.01838e-08
-5.00487e-08
-2.02153e-08
-4.3024e-08
-2.02183e-08
-3.60037e-08
-2.01941e-08
-2.89963e-08
-2.01437e-08
-2.20098e-08
-2.00685e-08
-1.50518e-08
-1.99695e-08
-8.1294e-09
-1.98483e-08
-1.24928e-09
-1.9706e-08
5.58189e-09
-1.95436e-08
1.23575e-08
-1.93618e-08
1.9071e-08
-1.91619e-08
2.57166e-08
-1.89441e-08
3.22899e-08
-1.87083e-08
3.87835e-08
-1.84555e-08
4.51909e-08
-1.81868e-08
5.15089e-08
-1.79031e-08
5.77338e-08
-1.76059e-08
6.3862e-08
-1.72967e-08
6.98899e-08
-1.69769e-08
7.58143e-08
-1.66475e-08
8.16322e-08
-1.63096e-08
8.73409e-08
-1.5964e-08
9.2938e-08
-1.56118e-08
9.84215e-08
-1.52536e-08
1.0379e-07
-1.48904e-08
1.09041e-07
-1.45228e-08
1.14173e-07
-1.41516e-08
1.19185e-07
-1.37776e-08
1.24077e-07
-1.34015e-08
1.28847e-07
-1.30238e-08
1.33495e-07
-1.26454e-08
1.38021e-07
-1.22666e-08
1.42424e-07
-1.18883e-08
1.46704e-07
-1.15109e-08
1.50862e-07
-1.11349e-08
1.54899e-07
-1.07609e-08
1.58814e-07
-1.03893e-08
1.62608e-07
-1.00206e-08
1.66282e-07
-9.65519e-09
1.69837e-07
-9.29346e-09
1.73275e-07
-8.93586e-09
1.76596e-07
-8.58273e-09
1.79802e-07
-8.23441e-09
1.82894e-07
-7.89118e-09
1.85873e-07
-7.55335e-09
1.88742e-07
-7.2212e-09
1.91502e-07
-6.895e-09
1.94155e-07
-6.57495e-09
1.96701e-07
-6.26126e-09
1.99144e-07
-5.95405e-09
2.01484e-07
-5.6535e-09
2.03725e-07
-5.3597e-09
2.05868e-07
-5.07281e-09
2.07915e-07
-4.7929e-09
2.09868e-07
-4.52004e-09
2.1173e-07
-4.25428e-09
2.13502e-07
-3.99568e-09
2.15187e-07
-3.74424e-09
2.16786e-07
-3.49991e-09
2.18303e-07
-3.26268e-09
2.19738e-07
-3.03249e-09
2.21094e-07
-2.80928e-09
2.22373e-07
-2.5929e-09
2.23578e-07
-2.38317e-09
2.2471e-07
-2.17989e-09
2.25773e-07
-1.98284e-09
2.26767e-07
-1.79175e-09
2.27696e-07
-1.60668e-09
2.28562e-07
-1.42761e-09
2.29367e-07
-1.25452e-09
2.30113e-07
-1.08771e-09
2.30801e-07
-9.27255e-10
2.31431e-07
-7.72956e-10
2.32007e-07
-6.24499e-10
2.32529e-07
-4.81502e-10
2.33e-07
-3.4367e-10
2.3342e-07
-2.10771e-10
2.33792e-07
-8.24895e-11
2.34116e-07
4.15344e-11
2.34393e-07
1.61598e-10
2.34625e-07
2.78125e-10
2.34814e-07
3.9168e-10
2.34958e-07
5.02931e-10
2.3506e-07
6.12691e-10
2.3512e-07
7.21966e-10
2.35137e-07
8.31931e-10
2.35111e-07
9.44114e-10
2.35041e-07
1.0605e-09
2.34925e-07
1.1837e-09
2.34759e-07
1.31718e-09
2.34541e-07
1.46549e-09
2.34263e-07
1.63476e-09
2.33918e-07
1.83346e-09
2.33493e-07
2.07338e-09
2.32972e-07
2.37136e-09
2.32333e-07
2.75189e-09
2.31543e-07
3.25188e-09
2.30558e-07
3.92876e-09
2.29313e-07
4.87411e-09
2.2772e-07
6.26142e-09
2.25677e-07
8.31768e-09
2.23056e-07
1.16227e-08
1.691e-08
2.19958e-07
-1.7299e-09
-2.11892e-09
-5.96936e-09
8.76891e-10
-1.12272e-08
5.05886e-09
-1.69689e-08
8.84023e-09
-2.30599e-08
1.22443e-08
-2.94711e-08
1.53153e-08
-3.6203e-08
1.80743e-08
-4.32569e-08
2.05351e-08
-5.06185e-08
2.27146e-08
-5.82517e-08
2.46348e-08
-6.60994e-08
2.63182e-08
-7.40905e-08
2.77833e-08
-8.21468e-08
2.90415e-08
-9.01907e-08
3.00972e-08
-9.81497e-08
3.09494e-08
-1.0596e-07
3.1595e-08
-1.13568e-07
3.20313e-08
-1.20931e-07
3.22575e-08
-1.28017e-07
3.22759e-08
-1.34802e-07
3.20925e-08
-1.41273e-07
3.17165e-08
-1.47422e-07
3.116e-08
-1.53245e-07
3.0437e-08
-1.58743e-07
2.95627e-08
-1.63918e-07
2.8553e-08
-1.68772e-07
2.74238e-08
-1.73309e-07
2.61909e-08
-1.77532e-07
2.48692e-08
-1.81442e-07
2.3473e-08
-1.8504e-07
2.2015e-08
-1.88326e-07
2.05073e-08
-1.913e-07
1.89603e-08
-1.93961e-07
1.73834e-08
-1.96307e-07
1.57851e-08
-1.98337e-07
1.41724e-08
-2.00049e-07
1.25519e-08
-2.01442e-07
1.09291e-08
-2.02516e-07
9.30893e-09
-2.03269e-07
7.69582e-09
-2.03703e-07
6.09378e-09
-2.03818e-07
4.50648e-09
-2.03616e-07
2.93738e-09
-2.03098e-07
1.3898e-09
-2.02268e-07
-1.33055e-10
-2.01127e-07
-1.62811e-09
-1.99678e-07
-3.09272e-09
-1.97921e-07
-4.52499e-09
-1.9586e-07
-5.92368e-09
-1.93499e-07
-7.2875e-09
-1.90845e-07
-8.61479e-09
-1.87904e-07
-9.90384e-09
-1.84683e-07
-1.1153e-08
-1.81189e-07
-1.23606e-08
-1.77432e-07
-1.35252e-08
-1.73421e-07
-1.46454e-08
-1.69165e-07
-1.572e-08
-1.64674e-07
-1.67479e-08
-1.59959e-07
-1.7728e-08
-1.55029e-07
-1.86596e-08
-1.49897e-07
-1.95419e-08
-1.44572e-07
-2.03746e-08
-1.39067e-07
-2.11572e-08
-1.33391e-07
-2.18895e-08
-1.27557e-07
-2.25716e-08
-1.21576e-07
-2.32035e-08
-1.15459e-07
-2.37855e-08
-1.09218e-07
-2.43182e-08
-1.02862e-07
-2.48022e-08
-9.64043e-08
-2.52382e-08
-8.98544e-08
-2.56264e-08
-8.32232e-08
-2.59676e-08
-7.65211e-08
-2.62629e-08
-6.97583e-08
-2.65134e-08
-6.29451e-08
-2.67202e-08
-5.6091e-08
-2.68845e-08
-4.92057e-08
-2.70076e-08
-4.22984e-08
-2.70907e-08
-3.53779e-08
-2.71353e-08
-2.84528e-08
-2.71429e-08
-2.15315e-08
-2.71149e-08
-1.4622e-08
-2.70528e-08
-7.73173e-09
-2.69582e-08
-8.68005e-10
-2.68328e-08
5.96202e-09
-2.66778e-08
1.27512e-08
-2.64946e-08
1.94929e-08
-2.62847e-08
2.61808e-08
-2.60493e-08
3.28087e-08
-2.57895e-08
3.93706e-08
-2.5506e-08
4.58619e-08
-2.51997e-08
5.22779e-08
-2.48714e-08
5.86138e-08
-2.45224e-08
6.48655e-08
-2.41543e-08
7.1029e-08
-2.37688e-08
7.71004e-08
-2.33676e-08
8.30763e-08
-2.29522e-08
8.89534e-08
-2.2524e-08
9.47288e-08
-2.20844e-08
1.004e-07
-2.16344e-08
1.05964e-07
-2.11754e-08
1.1142e-07
-2.07083e-08
1.16764e-07
-2.02342e-08
1.21997e-07
-1.97542e-08
1.27116e-07
-1.92692e-08
1.32119e-07
-1.87802e-08
1.37007e-07
-1.82881e-08
1.41778e-07
-1.77937e-08
1.46431e-07
-1.7298e-08
1.50967e-07
-1.68016e-08
1.55384e-07
-1.63055e-08
1.59684e-07
-1.58102e-08
1.63866e-07
-1.53166e-08
1.6793e-07
-1.48251e-08
1.71877e-07
-1.43366e-08
1.75708e-07
-1.38514e-08
1.79423e-07
-1.33704e-08
1.83024e-07