/*--------------------------------*- C++ -*----------------------------------*\
  =========                 |
  \\      /  F ield         | OpenFOAM: The Open Source CFD Toolbox
   \\    /   O peration     | Website:  https://openfoam.org
    \\  /    A nd           | Version:  6
     \\/     M anipulation  |
\*---------------------------------------------------------------------------*/
FoamFile
{
    version     2.0;
    format      ascii;
    class       volVectorField;
    location    "235";
    object      U;
}
// * * * * * * * * * * * * * * * * * * * * * * * * * * * * * * * * * * * * * //

dimensions      [0 1 -1 0 0 0 0];

internalField   nonuniform List<vector> 
12225
(
(0.0396347 -0.0374399 0)
(0.0853292 -0.00785807 0)
(0.11163 -0.00484399 0)
(0.135849 -0.00419099 0)
(0.157299 -0.00357265 0)
(0.175063 -0.00295363 0)
(0.189509 -0.00243044 0)
(0.20131 -0.0020081 0)
(0.211021 -0.00167305 0)
(0.219097 -0.00141135 0)
(0.22592 -0.00121369 0)
(0.231826 -0.00107786 0)
(0.237147 -0.00101234 0)
(0.242257 -0.00104657 0)
(0.247778 -0.00126011 0)
(0.254657 -0.001914 0)
(0.266575 -0.003579 0)
(0.284576 -0.012561 0)
(0.103554 -0.013673 0)
(0.138856 -0.0135139 0)
(0.18003 -0.0114192 0)
(0.213419 -0.0101445 0)
(0.241971 -0.00891559 0)
(0.266291 -0.00769645 0)
(0.286906 -0.00663117 0)
(0.304464 -0.00574174 0)
(0.319518 -0.00501509 0)
(0.33254 -0.00443395 0)
(0.343939 -0.00398814 0)
(0.354081 -0.00368146 0)
(0.363321 -0.00354132 0)
(0.372045 -0.0036451 0)
(0.380792 -0.00418292 0)
(0.390233 -0.00570962 0)
(0.402024 -0.00953616 0)
(0.414477 -0.0202626 0)
(0.149123 -0.0191865 0)
(0.178632 -0.0221899 0)
(0.221602 -0.0194893 0)
(0.255987 -0.0173213 0)
(0.285315 -0.0153082 0)
(0.310548 -0.0134251 0)
(0.332243 -0.0117791 0)
(0.350981 -0.0103877 0)
(0.367259 -0.00923562 0)
(0.381506 -0.00830268 0)
(0.394104 -0.00757789 0)
(0.405397 -0.00706949 0)
(0.415711 -0.00681857 0)
(0.425379 -0.0069322 0)
(0.434792 -0.00765342 0)
(0.444281 -0.00957391 0)
(0.454223 -0.0138557 0)
(0.462356 -0.0228753 0)
(0.196339 -0.0267599 0)
(0.219356 -0.0315732 0)
(0.258538 -0.0286279 0)
(0.291215 -0.0255468 0)
(0.319533 -0.0226743 0)
(0.344152 -0.0200598 0)
(0.365546 -0.0177736 0)
(0.384206 -0.0158268 0)
(0.400557 -0.0142012 0)
(0.414975 -0.0128736 0)
(0.427803 -0.0118319 0)
(0.439348 -0.0110867 0)
(0.449896 -0.0106875 0)
(0.459717 -0.0107547 0)
(0.469072 -0.0115378 0)
(0.478055 -0.0135511 0)
(0.486502 -0.0175718 0)
(0.492467 -0.0245005 0)
(0.246709 -0.0317135 0)
(0.263335 -0.0400412 0)
(0.2963 -0.0378003 0)
(0.325776 -0.0340944 0)
(0.352058 -0.0304533 0)
(0.375244 -0.0271398 0)
(0.395619 -0.0242258 0)
(0.413558 -0.0217245 0)
(0.429398 -0.0196187 0)
(0.443455 -0.0178849 0)
(0.456023 -0.016511 0)
(0.467366 -0.0155084 0)
(0.477725 -0.0149282 0)
(0.487306 -0.0148876 0)
(0.496265 -0.015606 0)
(0.504559 -0.0174653 0)
(0.51186 -0.020883 0)
(0.516677 -0.0259669 0)
(0.300409 -0.0342502 0)
(0.310988 -0.0469491 0)
(0.336741 -0.0461733 0)
(0.361997 -0.042317 0)
(0.385453 -0.0381339 0)
(0.406579 -0.034237 0)
(0.425405 -0.030766 0)
(0.442153 -0.0277556 0)
(0.457062 -0.025198 0)
(0.470379 -0.0230742 0)
(0.48234 -0.0213739 0)
(0.493164 -0.020108 0)
(0.50304 -0.0193233 0)
(0.512119 -0.0191204 0)
(0.520477 -0.0196682 0)
(0.528008 -0.0212104 0)
(0.534391 -0.023905 0)
(0.538546 -0.0275203 0)
(0.357264 -0.0349149 0)
(0.362326 -0.0520483 0)
(0.380636 -0.0532797 0)
(0.400968 -0.0498088 0)
(0.420947 -0.0453932 0)
(0.439475 -0.0410855 0)
(0.456291 -0.0371653 0)
(0.471445 -0.0337179 0)
(0.485065 -0.0307575 0)
(0.497319 -0.0282761 0)
(0.508382 -0.0262672 0)
(0.51842 -0.0247412 0)
(0.527575 -0.0237361 0)
(0.535944 -0.0233281 0)
(0.543553 -0.02363 0)
(0.550278 -0.0247689 0)
(0.555866 -0.0267399 0)
(0.559565 -0.0292099 0)
(0.416839 -0.0340867 0)
(0.417087 -0.0552045 0)
(0.428242 -0.0588057 0)
(0.443232 -0.0562319 0)
(0.459217 -0.0519389 0)
(0.474674 -0.0474386 0)
(0.489064 -0.0432111 0)
(0.502254 -0.0394235 0)
(0.514255 -0.0361283 0)
(0.52515 -0.033336 0)
(0.535048 -0.0310481 0)
(0.54406 -0.0292744 0)
(0.552279 -0.0280423 0)
(0.559761 -0.0274015 0)
(0.566496 -0.0274129 0)
(0.572371 -0.0281167 0)
(0.577214 -0.0294203 0)
(0.580503 -0.0309987 0)
(0.478471 -0.0321037 0)
(0.474825 -0.0563863 0)
(0.479474 -0.062508 0)
(0.488982 -0.0612637 0)
(0.500611 -0.0574608 0)
(0.512603 -0.0530216 0)
(0.524194 -0.0486609 0)
(0.535081 -0.0446563 0)
(0.545154 -0.041115 0)
(0.55441 -0.0380754 0)
(0.562889 -0.0355517 0)
(0.570648 -0.0335547 0)
(0.577733 -0.032102 0)
(0.584162 -0.0312187 0)
(0.589909 -0.0309236 0)
(0.594877 -0.0311995 0)
(0.598967 -0.0319172 0)
(0.601802 -0.0328027 0)
(0.541356 -0.0293172 0)
(0.534921 -0.0556688 0)
(0.533952 -0.0642301 0)
(0.53811 -0.0646142 0)
(0.545202 -0.0616421 0)
(0.553438 -0.0575354 0)
(0.561918 -0.0532417 0)
(0.570198 -0.0491682 0)
(0.57806 -0.0454912 0)
(0.585414 -0.0422863 0)
(0.592236 -0.0395856 0)
(0.598526 -0.0374047 0)
(0.60429 -0.0357537 0)
(0.609514 -0.0346382 0)
(0.614159 -0.0340472 0)
(0.618148 -0.0339308 0)
(0.621435 -0.0341551 0)
(0.623724 -0.0345049 0)
(0.604646 -0.0260455 0)
(0.596527 -0.053246 0)
(0.591007 -0.0639165 0)
(0.590209 -0.0660562 0)
(0.592783 -0.0641887 0)
(0.597107 -0.0606755 0)
(0.602246 -0.0566613 0)
(0.607669 -0.0526853 0)
(0.613072 -0.049002 0)
(0.618289 -0.0457318 0)
(0.623234 -0.0429303 0)
(0.627859 -0.0406214 0)
(0.632127 -0.0388125 0)
(0.636002 -0.0374963 0)
(0.639433 -0.0366442 0)
(0.642359 -0.0361923 0)
(0.644764 -0.036019 0)
(0.646394 -0.0359622 0)
(0.66224 -0.022801 0)
(0.653454 -0.0497527 0)
(0.644839 -0.0618445 0)
(0.640066 -0.0655275 0)
(0.638704 -0.0648214 0)
(0.639439 -0.0620485 0)
(0.641404 -0.0584735 0)
(0.644047 -0.0547432 0)
(0.647015 -0.051183 0)
(0.650091 -0.0479573 0)
(0.653142 -0.0451469 0)
(0.656079 -0.0427872 0)
(0.658835 -0.040887 0)
(0.661352 -0.0394344 0)
(0.663572 -0.0383938 0)
(0.665439 -0.0377 0)
(0.666953 -0.0372478 0)
(0.667869 -0.0369219 0)
(0.71811 -0.0195438 0)
(0.709345 -0.045412 0)
(0.698612 -0.0583807 0)
(0.690498 -0.0634012 0)
(0.685551 -0.0638767 0)
(0.682849 -0.0619554 0)
(0.681666 -0.0589512 0)
(0.681485 -0.0555927 0)
(0.681941 -0.0522674 0)
(0.682784 -0.049182 0)
(0.683843 -0.0464433 0)
(0.684999 -0.0441009 0)
(0.686157 -0.0421687 0)
(0.687241 -0.040635 0)
(0.688187 -0.0394639 0)
(0.68894 -0.0385952 0)
(0.689497 -0.0379417 0)
(0.689625 -0.0374277 0)
(0.779253 -0.0160163 0)
(0.771083 -0.0395865 0)
(0.759069 -0.0527882 0)
(0.74804 -0.0589187 0)
(0.739576 -0.060633 0)
(0.733279 -0.0597515 0)
(0.728644 -0.0575325 0)
(0.72527 -0.0547472 0)
(0.722821 -0.0518341 0)
(0.721042 -0.0490396 0)
(0.71974 -0.0464984 0)
(0.718769 -0.0442774 0)
(0.718015 -0.0424005 0)
(0.717385 -0.0408613 0)
(0.716802 -0.0396299 0)
(0.716212 -0.0386571 0)
(0.715598 -0.0378773 0)
(0.714741 -0.0372414 0)
(0.843501 -0.0123906 0)
(0.836331 -0.0323438 0)
(0.823997 -0.0447811 0)
(0.810845 -0.051455 0)
(0.799301 -0.0542119 0)
(0.789556 -0.0544233 0)
(0.781409 -0.0531588 0)
(0.77464 -0.0511543 0)
(0.769013 -0.0488633 0)
(0.764305 -0.0465561 0)
(0.760328 -0.0443897 0)
(0.756928 -0.042448 0)
(0.753975 -0.0407674 0)
(0.751365 -0.0393518 0)
(0.749012 -0.0381822 0)
(0.746854 -0.0372242 0)
(0.744853 -0.0364342 0)
(0.74281 -0.0357804 0)
(0.906625 -0.00876114 0)
(0.900577 -0.0239138 0)
(0.88875 -0.0343063 0)
(0.874492 -0.0405775 0)
(0.860687 -0.0438202 0)
(0.848057 -0.0449111 0)
(0.836718 -0.0446138 0)
(0.826685 -0.043526 0)
(0.817879 -0.0420525 0)
(0.810161 -0.0404507 0)
(0.803381 -0.0388792 0)
(0.7974 -0.0374296 0)
(0.79209 -0.0361476 0)
(0.787343 -0.0350481 0)
(0.783067 -0.0341249 0)
(0.779187 -0.0333593 0)
(0.77565 -0.0327269 0)
(0.772279 -0.0322093 0)
(0.96109 -0.00510693 0)
(0.955983 -0.0145088 0)
(0.945085 -0.0215063 0)
(0.93065 -0.0261562 0)
(0.915606 -0.0289685 0)
(0.901029 -0.0303759 0)
(0.887285 -0.0307907 0)
(0.874603 -0.0305814 0)
(0.863082 -0.0300245 0)
(0.852699 -0.029308 0)
(0.843375 -0.0285547 0)
(0.835008 -0.0278402 0)
(0.827492 -0.0272062 0)
(0.820723 -0.0266708 0)
(0.814609 -0.0262364 0)
(0.809069 -0.0258963 0)
(0.804034 -0.0256401 0)
(0.799366 -0.025459 0)
(0.994169 -0.0012829 0)
(0.989623 -0.00407619 0)
(0.979574 -0.00643556 0)
(0.965462 -0.00822324 0)
(0.950074 -0.00954356 0)
(0.934643 -0.0104793 0)
(0.919665 -0.0111178 0)
(0.905494 -0.0115572 0)
(0.892347 -0.0118805 0)
(0.880301 -0.0121467 0)
(0.86934 -0.0123959 0)
(0.859402 -0.0126531 0)
(0.850408 -0.0129323 0)
(0.842269 -0.0132388 0)
(0.834895 -0.0135727 0)
(0.828205 -0.0139312 0)
(0.822125 -0.0143108 0)
(0.816568 -0.0147087 0)
(0.985589 0.00263308 0)
(0.981362 0.00735191 0)
(0.971541 0.010849 0)
(0.957606 0.0130583 0)
(0.942394 0.0141726 0)
(0.927183 0.014424 0)
(0.912455 0.014039 0)
(0.898537 0.0132161 0)
(0.885632 0.0121104 0)
(0.873807 0.0108349 0)
(0.863042 0.00946941 0)
(0.853276 0.00806887 0)
(0.844431 0.00667025 0)
(0.83642 0.00529786 0)
(0.829156 0.0039671 0)
(0.822559 0.00268677 0)
(0.816554 0.00146036 0)
(0.811112 0.00028702 0)
(0.925892 0.00709509 0)
(0.91986 0.0195331 0)
(0.908391 0.0283094 0)
(0.893923 0.033571 0)
(0.879405 0.0361059 0)
(0.865789 0.0366501 0)
(0.853253 0.035837 0)
(0.841877 0.0341749 0)
(0.831661 0.0320275 0)
(0.822527 0.0296374 0)
(0.814366 0.0271613 0)
(0.807064 0.0246982 0)
(0.800516 0.0223077 0)
(0.794629 0.0200239 0)
(0.789316 0.0178641 0)
(0.784505 0.0158345 0)
(0.780132 0.013934 0)
(0.776209 0.0121548 0)
(0.84451 0.0121041 0)
(0.837138 0.0311684 0)
(0.824901 0.0430335 0)
(0.811403 0.0491612 0)
(0.799329 0.0513474 0)
(0.789025 0.0509582 0)
(0.780247 0.0490111 0)
(0.772775 0.0462149 0)
(0.766401 0.0430191 0)
(0.760926 0.0396948 0)
(0.75618 0.0364017 0)
(0.752025 0.0332307 0)
(0.748354 0.0302291 0)
(0.745084 0.0274179 0)
(0.742145 0.0248023 0)
(0.739484 0.0223779 0)
(0.737055 0.0201348 0)
(0.734898 0.0180574 0)
(0.748287 0.0175748 0)
(0.739728 0.0419341 0)
(0.72839 0.0547708 0)
(0.718194 0.0599801 0)
(0.71075 0.0606394 0)
(0.705537 0.0587085 0)
(0.701866 0.0554425 0)
(0.699273 0.051595 0)
(0.69743 0.0475849 0)
(0.696091 0.0436377 0)
(0.695087 0.0398703 0)
(0.694303 0.0363382 0)
(0.693662 0.0330619 0)
(0.693111 0.0300417 0)
(0.692615 0.0272672 0)
(0.69215 0.0247228 0)
(0.691697 0.0223906 0)
(0.691317 0.0202494 0)
(0.645464 0.0233707 0)
(0.636864 0.050661 0)
(0.629013 0.0621075 0)
(0.624644 0.0650385 0)
(0.623613 0.0636427 0)
(0.624591 0.0601709 0)
(0.626619 0.0558597 0)
(0.62915 0.0513437 0)
(0.631858 0.0469278 0)
(0.634544 0.0427529 0)
(0.637097 0.0388776 0)
(0.639459 0.0353173 0)
(0.641606 0.0320653 0)
(0.64353 0.0291033 0)
(0.645237 0.0264084 0)
(0.646737 0.0239565 0)
(0.648042 0.0217246 0)
(0.64923 0.0196876 0)
(0.541909 0.0288725 0)
(0.535439 0.0559068 0)
(0.534035 0.0641058 0)
(0.537485 0.0642622 0)
(0.543775 0.0610187 0)
(0.551181 0.056498 0)
(0.55876 0.0516837 0)
(0.566061 0.0469973 0)
(0.572871 0.0426079 0)
(0.579099 0.0385745 0)
(0.584726 0.0349055 0)
(0.589767 0.0315852 0)
(0.594258 0.0285874 0)
(0.598244 0.0258821 0)
(0.601771 0.0234392 0)
(0.604883 0.0212303 0)
(0.607621 0.0192304 0)
(0.610078 0.0174146 0)
(0.442003 0.0330491 0)
(0.440319 0.0565641 0)
(0.447937 0.0606961 0)
(0.460186 0.0584625 0)
(0.473732 0.0540928 0)
(0.487062 0.0492276 0)
(0.499518 0.0444875 0)
(0.51087 0.0400825 0)
(0.521079 0.0360736 0)
(0.530189 0.0324624 0)
(0.538275 0.0292252 0)
(0.545432 0.0263284 0)
(0.551755 0.0237362 0)
(0.557333 0.0214137 0)
(0.562253 0.0193289 0)
(0.566589 0.0174527 0)
(0.570405 0.0157612 0)
(0.573809 0.0142322 0)
(0.349088 0.0346418 0)
(0.354407 0.0522371 0)
(0.372707 0.0526087 0)
(0.393598 0.0489645 0)
(0.413532 0.0443835 0)
(0.431793 0.0398482 0)
(0.448168 0.0356487 0)
(0.462692 0.0318557 0)
(0.47551 0.0284691 0)
(0.486786 0.0254612 0)
(0.496693 0.0227941 0)
(0.505389 0.020428 0)
(0.513022 0.0183255 0)
(0.519725 0.0164528 0)
(0.525613 0.0147797 0)
(0.530789 0.0132798 0)
(0.535335 0.011932 0)
(0.53937 0.0107191 0)
(0.265404 0.0322681 0)
(0.279087 0.0432694 0)
(0.308262 0.0411984 0)
(0.33656 0.0373122 0)
(0.361487 0.0333367 0)
(0.383444 0.0296228 0)
(0.402673 0.0262645 0)
(0.419448 0.0232799 0)
(0.434061 0.0206491 0)
(0.446789 0.0183369 0)
(0.457876 0.0163042 0)
(0.46754 0.0145139 0)
(0.475973 0.0129326 0)
(0.483338 0.0115311 0)
(0.489778 0.0102844 0)
(0.495414 0.00917003 0)
(0.500347 0.0081707 0)
(0.504702 0.00727567 0)
(0.19184 0.0252747 0)
(0.214689 0.0311031 0)
(0.252529 0.0284765 0)
(0.285962 0.0253183 0)
(0.314163 0.0224385 0)
(0.338454 0.019769 0)
(0.359406 0.0173575 0)
(0.377452 0.0152333 0)
(0.393 0.0133798 0)
(0.406412 0.0117656 0)
(0.417996 0.0103579 0)
(0.428014 0.00912676 0)
(0.43669 0.008046 0)
(0.444215 0.00709334 0)
(0.450748 0.00624987 0)
(0.456427 0.00549833 0)
(0.461361 0.0048244 0)
(0.465685 0.00422314 0)
(0.126949 0.0183009 0)
(0.159752 0.0191763 0)
(0.199771 0.017005 0)
(0.234685 0.0149295 0)
(0.263919 0.0131668 0)
(0.288771 0.0114613 0)
(0.309923 0.00989709 0)
(0.327888 0.00853176 0)
(0.343156 0.00735655 0)
(0.356154 0.00634641 0)
(0.367237 0.00547625 0)
(0.376702 0.00472378 0)
(0.384795 0.00407007 0)
(0.391722 0.00349944 0)
(0.397655 0.00299889 0)
(0.402739 0.00255599 0)
(0.407083 0.00215788 0)
(0.410829 0.00180382 0)
(0.0516507 0.0431258 0)
(0.102076 0.0134226 0)
(0.130614 0.00907601 0)
(0.158821 0.0075073 0)
(0.183291 0.00644725 0)
(0.203688 0.00546055 0)
(0.220517 0.0045714 0)
(0.234296 0.00381799 0)
(0.245554 0.00318891 0)
(0.254749 0.00266262 0)
(0.262251 0.00222038 0)
(0.268359 0.00184681 0)
(0.273315 0.00152941 0)
(0.277317 0.00125824 0)
(0.280525 0.00102515 0)
(0.283073 0.000823876 0)
(0.285051 0.000643878 0)
(0.286573 0.000486377 0)
(0.000660151 -0.00159935 -2.9102e-22)
(0.0030187 -0.00303245 4.21135e-22)
(0.00572172 -0.00327256 0)
(0.00795592 -0.00272945 0)
(0.00922214 -0.00183253 0)
(0.0094514 -0.000902231 -4.32576e-22)
(0.0087484 -0.000117609 0)
(0.00732804 0.000473105 0)
(0.00535101 0.000908582 0)
(0.00292863 0.00125793 0)
(0.000119606 0.00157642 6.06783e-22)
(-0.00306651 0.00189836 0)
(-0.00665168 0.00225172 0)
(-0.0106642 0.00265565 0)
(-0.015129 0.00311432 0)
(-0.0200655 0.00362111 6.01184e-22)
(-0.0254815 0.00416206 0)
(-0.0313717 0.00471876 0)
(-0.0377147 0.00527063 0)
(-0.0444747 0.00579744 0)
(-0.0516028 0.00628101 0)
(-0.0590403 0.00670572 0)
(-0.0667193 0.00705779 0)
(-0.0745676 0.00732772 5.34882e-22)
(-0.0825104 0.00751066 -5.26498e-22)
(-0.090474 0.00760616 5.17857e-22)
(-0.0983875 0.00761709 5.08737e-22)
(-0.106185 0.00754836 0)
(-0.113805 0.00740676 0)
(-0.121196 0.00720061 -4.76174e-22)
(-0.128309 0.00693867 -4.62777e-22)
(-0.135104 0.00662972 0)
(-0.14155 0.00628223 0)
(-0.147617 0.00590395 -4.11961e-22)
(-0.153286 0.00550184 0)
(-0.158539 0.00508181 0)
(-0.163363 0.00464884 3.41652e-22)
(-0.167751 0.00420679 0)
(-0.171695 0.00375868 2.82261e-22)
(-0.175193 0.00330644 4.97092e-22)
(-0.17824 0.00285112 0)
(-0.180836 0.00239259 0)
(-0.182977 0.00193018 0)
(-0.184666 0.00146414 0)
(-0.185906 0.000999073 0)
(-0.186699 0.000546589 -2.85982e-23)
(-0.187039 0.000125009 -1.37551e-22)
(-0.186916 -0.000246959 -2.5297e-22)
(-0.18643 -0.000575164 0)
(-0.18558 -0.000877387 5.04058e-22)
(-0.184389 -0.00116006 0)
(-0.182873 -0.00142734 -7.8231e-22)
(-0.181045 -0.00168076 -9.31801e-22)
(-0.178916 -0.0019214 0)
(-0.1765 -0.00214965 0)
(-0.173808 -0.00236594 0)
(-0.170851 -0.00257033 -1.60146e-21)
(-0.167642 -0.00276307 0)
(-0.164193 -0.00294419 0)
(-0.160516 -0.00311397 0)
(-0.156624 -0.00327246 0)
(-0.152529 -0.00341994 0)
(-0.148242 -0.00355652 0)
(-0.143778 -0.00368256 0)
(-0.139148 -0.00379826 0)
(-0.134364 -0.00390405 3.58099e-21)
(-0.129439 -0.00400012 0)
(-0.124385 -0.00408667 0)
(-0.119213 -0.00416363 -4.41532e-21)
(-0.113936 -0.00423179 -4.71699e-21)
(-0.108565 -0.00429165 0)
(-0.103113 -0.00434285 5.35874e-21)
(-0.0975888 -0.00438621 -5.70046e-21)
(-0.0920047 -0.00442211 0)
(-0.0863709 -0.00445085 6.42996e-21)
(-0.0806977 -0.00447281 0)
(-0.0749951 -0.00448837 0)
(-0.0692728 -0.00449792 -7.655e-21)
(-0.06354 -0.00450185 0)
(-0.0578057 -0.00450049 8.57362e-21)
(-0.0520784 -0.00449427 0)
(-0.0463663 -0.00448353 -9.58856e-21)
(-0.0406773 -0.00446869 -1.0137e-20)
(-0.0350186 -0.00445001 -1.07158e-20)
(-0.0293971 -0.00442789 -2.26549e-20)
(-0.0238196 -0.00440279 2.395e-20)
(-0.0182924 -0.00437567 0)
(-0.0128222 -0.00434743 0)
(-0.00741764 -0.00431326 0)
(-0.00209171 -0.0042572 2.97691e-20)
(0.00315779 -0.0041585 3.00863e-20)
(0.00834112 -0.00402688 -2.94812e-20)
(0.0134512 -0.00388762 0)
(0.0184762 -0.00374822 2.83839e-20)
(0.0234094 -0.00361049 2.78849e-20)
(0.0282465 -0.00347496 2.74152e-20)
(0.0329843 -0.00334196 0)
(0.0376198 -0.00321151 0)
(0.0421505 -0.00308372 0)
(0.0465742 -0.00295855 2.5781e-20)
(0.0508889 -0.00283612 0)
(0.0550931 -0.00271632 0)
(0.0591855 -0.00259932 -2.4763e-20)
(0.0631647 -0.00248495 0)
(0.0670297 -0.0023734 0)
(0.0707796 -0.00226451 -2.38848e-20)
(0.0744136 -0.00215851 0)
(0.0779314 -0.00205522 0)
(0.081333 -0.00195484 2.3123e-20)
(0.0846183 -0.00185718 2.28918e-20)
(0.0877879 -0.00176243 0)
(0.0908423 -0.00167037 -2.24602e-20)
(0.093782 -0.00158121 0)
(0.0966081 -0.00149474 2.20664e-20)
(0.0993214 -0.00141114 0)
(0.101923 -0.00133018 2.17072e-20)
(0.104414 -0.00125199 2.15397e-20)
(0.106797 -0.00117639 0)
(0.109071 -0.00110359 0)
(0.11124 -0.00103347 0)
(0.113305 -0.000966108 0)
(0.115268 -0.000901339 0)
(0.117132 -0.000839208 0)
(0.118898 -0.000779528 0)
(0.120568 -0.000722416 2.04495e-20)
(0.122143 -0.000667702 -2.03404e-20)
(0.123627 -0.000615465 0)
(0.125021 -0.000565519 0)
(0.126329 -0.000517927 0)
(0.127551 -0.000472519 0)
(0.128691 -0.000429347 -3.97425e-20)
(0.12975 -0.000388243 0)
(0.130732 -0.000349259 3.94314e-20)
(0.131639 -0.000312252 -3.92881e-20)
(0.132473 -0.000277263 0)
(0.133237 -0.000244144 0)
(0.133932 -0.000212904 0)
(0.134562 -0.000183388 3.87887e-20)
(0.135128 -0.000155581 3.86806e-20)
(0.135634 -0.000129356 0)
(0.13608 -0.000104651 3.84829e-20)
(0.13647 -8.13425e-05 3.83928e-20)
(0.136805 -5.92673e-05 -3.83081e-20)
(0.137087 -3.80796e-05 0)
(0.137318 -1.65975e-05 0)
(0.137491 4.90642e-06 -3.80798e-20)
(0.137612 2.44679e-05 0)
(0.137685 4.15707e-05 0)
(0.137714 5.6575e-05 0)
(0.137702 6.99651e-05 0)
(0.137652 8.20694e-05 3.77814e-20)
(0.137566 9.31325e-05 3.7733e-20)
(0.137445 0.000103315 0)
(0.13729 0.000112715 3.76452e-20)
(0.137104 0.000121372 0)
(0.136887 0.000129341 0)
(0.136641 0.000136678 3.7533e-20)
(0.136368 0.00014347 0)
(0.136067 0.000149808 3.74691e-20)
(0.135739 0.000155801 0)
(0.135386 0.000161562 0)
(0.135006 0.00016722 3.73887e-20)
(0.1346 0.000172908 0)
(0.134167 0.000178796 3.73461e-20)
(0.133705 0.000185101 0)
(0.133212 0.000192121 0)
(0.132685 0.000200238 0)
(0.132118 0.00020995 -3.73013e-20)
(0.131504 0.000221911 0)
(0.130834 0.000237033 3.73161e-20)
(0.130093 0.000256593 0)
(0.129262 0.000282486 0)
(0.128313 0.000317435 0)
(0.127203 0.000365954 0)
(0.125882 0.000434589 0)
(0.124217 0.000537558 0)
(0.122179 0.000691913 0)
(0.119013 0.000975388 -7.72827e-20)
(0.116113 0.00138748 0)
(0.1051 0.00240839 0)
(0.000678562 -0.00567531 7.99473e-22)
(0.00266864 -0.00907867 -1.25087e-21)
(0.00360584 -0.00750541 0)
(0.00322881 -0.00424637 5.37875e-22)
(0.0017155 -0.000742173 0)
(-0.000786453 0.00245669 2.56255e-22)
(-0.00414845 0.00513732 -4.55869e-22)
(-0.0082999 0.00728626 -4.41615e-22)
(-0.0131604 0.0090076 0)
(-0.0186605 0.0104455 -4.22354e-22)
(-0.0247363 0.011729 -2.36106e-22)
(-0.0313231 0.012947 0)
(-0.0383604 0.0141465 0)
(-0.0457943 0.0153404 0)
(-0.0535709 0.0165163 0)
(-0.0616298 0.0176479 -2.29641e-22)
(-0.069905 0.0187023 0)
(-0.0783261 0.0196461 4.11312e-22)
(-0.0868208 0.0204486 0)
(-0.0953169 0.0210839 0)
(-0.103745 0.0215325 -4.22685e-22)
(-0.112036 0.0217835 0)
(-0.120131 0.0218363 4.30931e-22)
(-0.127975 0.0216968 -2.29586e-22)
(-0.135522 0.0213763 2.29507e-22)
(-0.142736 0.0208904 -2.29083e-22)
(-0.149587 0.0202577 -2.28177e-22)
(-0.156051 0.0194982 0)
(-0.162112 0.0186322 0)
(-0.16776 0.0176797 2.21266e-22)
(-0.172986 0.0166593 -2.08636e-22)
(-0.177789 0.0155881 0)
(-0.182168 0.0144812 0)
(-0.186125 0.0133518 1.98002e-22)
(-0.189664 0.0122111 0)
(-0.192789 0.0110681 0)
(-0.195508 0.00993047 -1.67236e-22)
(-0.197827 0.00880396 0)
(-0.199752 0.00769313 1.4394e-22)
(-0.201292 0.00660133 -2.47886e-22)
(-0.202455 0.00553123 0)
(-0.203252 0.00448472 0)
(-0.203691 0.00346326 -2.94542e-22)
(-0.203786 0.00246777 -2.12704e-22)
(-0.203551 0.00150013 -1.25451e-22)
(-0.203001 0.000565345 3.29218e-23)
(-0.202157 -0.000325858 5.09171e-23)
(-0.201045 -0.0011597 2.7339e-22)
(-0.199624 -0.00193626 -2.7759e-22)
(-0.197896 -0.00266602 -2.18598e-22)
(-0.195864 -0.00335438 0)
(-0.193533 -0.00400527 3.42878e-22)
(-0.190913 -0.00462076 -3.50917e-22)
(-0.188011 -0.00520221 0)
(-0.184839 -0.00575032 0)
(-0.181405 -0.00626576 0)
(-0.17772 -0.00674885 6.93494e-22)
(-0.173795 -0.00720007 0)
(-0.169641 -0.00761973 -1.61883e-21)
(-0.165269 -0.00800838 0)
(-0.16069 -0.0083664 -1.93921e-21)
(-0.155915 -0.00869441 0)
(-0.150956 -0.00899293 2.27572e-21)
(-0.145825 -0.00926273 0)
(-0.140532 -0.00950447 -2.628e-21)
(-0.135089 -0.00971907 1.35602e-21)
(-0.129507 -0.00990741 0)
(-0.123798 -0.0100705 3.18536e-21)
(-0.117973 -0.0102091 1.74156e-21)
(-0.112042 -0.0103231 1.84133e-21)
(-0.106016 -0.0104137 0)
(-0.0999068 -0.0104825 1.9368e-21)
(-0.093724 -0.0105304 2.15167e-21)
(-0.0874777 -0.0105582 0)
(-0.0811781 -0.010567 -2.36812e-21)
(-0.0748347 -0.0105577 4.84388e-21)
(-0.068457 -0.0105314 0)
(-0.0620541 -0.010489 2.70773e-21)
(-0.0556347 -0.0104316 0)
(-0.0492074 -0.0103601 -8.71574e-21)
(-0.0427803 -0.0102756 0)
(-0.0363612 -0.010179 9.45174e-21)
(-0.0299576 -0.0100714 3.31648e-21)
(-0.0235764 -0.00995353 -3.32588e-21)
(-0.0172245 -0.00982641 -6.91394e-21)
(-0.0109084 -0.00969065 7.18141e-21)
(-0.00463458 -0.00954693 0)
(0.001592 -0.00939467 0)
(0.00776867 -0.00923274 0)
(0.0138935 -0.00905947 -2.39454e-20)
(0.019958 -0.00886908 -8.12625e-21)
(0.0259464 -0.00866215 8.19262e-21)
(0.0318533 -0.0084463 0)
(0.0376794 -0.00822562 8.11601e-21)
(0.0434221 -0.0080023 -8.37193e-21)
(0.0490778 -0.00777756 -8.42527e-21)
(0.0546431 -0.00755217 0)
(0.0601152 -0.00732669 0)
(0.0654911 -0.00710159 0)
(0.0707686 -0.00687724 -8.60967e-21)
(0.0759452 -0.00665406 0)
(0.0810191 -0.00643236 1.72184e-20)
(0.0859885 -0.0062125 2.60147e-20)
(0.090852 -0.00599471 -1.73643e-20)
(0.0956079 -0.00577934 0)
(0.100255 -0.00556658 -8.68007e-21)
(0.104792 -0.00535681 0)
(0.109219 -0.00515015 -1.76082e-20)
(0.113535 -0.00494692 8.77083e-21)
(0.117739 -0.0047472 8.79783e-21)
(0.121832 -0.00455127 0)
(0.125813 -0.00435916 2.67536e-20)
(0.129683 -0.00417113 -1.78422e-20)
(0.133441 -0.0039872 -8.98929e-21)
(0.137089 -0.00380758 0)
(0.140628 -0.00363225 -9.02168e-21)
(0.144056 -0.0034614 -2.70246e-20)
(0.147377 -0.00329499 0)
(0.15059 -0.00313319 -1.80512e-20)
(0.153696 -0.00297597 -1.80811e-20)
(0.156698 -0.00282345 -1.81096e-20)
(0.159596 -0.00267559 0)
(0.162392 -0.00253247 0)
(0.165087 -0.00239398 0)
(0.167683 -0.0022602 9.07754e-21)
(0.170181 -0.00213101 9.14762e-21)
(0.172582 -0.00200648 0)
(0.174889 -0.00188646 1.82864e-20)
(0.177103 -0.00177098 1.83097e-20)
(0.179226 -0.00165991 0)
(0.181261 -0.00155327 1.84001e-20)
(0.183208 -0.00145089 3.67582e-20)
(0.18507 -0.0013528 -1.84421e-20)
(0.18685 -0.00125886 -1.83875e-20)
(0.188548 -0.00116906 0)
(0.190168 -0.00108323 0)
(0.19171 -0.00100133 0)
(0.193178 -0.000923215 -1.85493e-20)
(0.194572 -0.000848774 1.8513e-20)
(0.195895 -0.00077783 3.7132e-20)
(0.197149 -0.00071023 -1.86164e-20)
(0.198337 -0.000645786 1.859e-20)
(0.199459 -0.000584263 1.86632e-20)
(0.200518 -0.000525365 0)
(0.201516 -0.000468223 0)
(0.20246 -0.000412869 -1.86959e-20)
(0.203349 -0.000360691 0)
(0.204183 -0.00031226 0)
(0.204963 -0.000267336 3.75925e-20)
(0.20569 -0.000225495 0)
(0.206367 -0.000186296 1.88361e-20)
(0.206993 -0.000149395 -1.88919e-20)
(0.20757 -0.000114669 0)
(0.208101 -8.20426e-05 1.8915e-20)
(0.208588 -5.13515e-05 0)
(0.209031 -2.24314e-05 0)
(0.209432 4.87727e-06 -1.90167e-20)
(0.209792 3.07612e-05 3.80647e-20)
(0.210113 5.54255e-05 -1.90688e-20)
(0.210394 7.91082e-05 0)
(0.210637 0.000102091 0)
(0.210842 0.000124699 1.91331e-20)
(0.211008 0.000147286 0)
(0.211136 0.000170294 1.91908e-20)
(0.211223 0.00019429 0)
(0.211268 0.000220026 0)
(0.211268 0.000248478 0)
(0.211218 0.000280926 1.93286e-20)
(0.211112 0.000319074 0)
(0.210941 0.000365259 -1.94026e-20)
(0.210692 0.000422763 0)
(0.210349 0.000496311 0)
(0.209886 0.000592834 3.90949e-20)
(0.209266 0.000723111 -3.92319e-20)
(0.208445 0.000904106 0)
(0.207321 0.00116437 0)
(0.205862 0.0015639 0)
(0.203556 0.00218766 1.20713e-19)
(0.201325 0.00324942 0)
(0.194322 0.00526798 -8.35384e-20)
(0.000378336 -0.00775771 -1.64609e-22)
(-0.000208222 -0.00900371 1.1976e-21)
(-0.00233003 -0.00429008 0)
(-0.00541595 0.00117233 -6.24094e-22)
(-0.00924203 0.00628824 0)
(-0.013682 0.0108204 0)
(-0.0186761 0.0147279 2.36857e-23)
(-0.0242073 0.0180451 2.3164e-22)
(-0.0302583 0.0208556 2.01857e-22)
(-0.036795 0.0232677 2.23371e-22)
(-0.0437629 0.0253855 0)
(-0.051092 0.0272866 0)
(-0.0587035 0.0290134 -1.99003e-22)
(-0.0665158 0.0305768 -4.0418e-22)
(-0.0744476 0.0319658 4.12632e-22)
(-0.0824201 0.0331579 0)
(-0.0903596 0.0341274 4.34797e-22)
(-0.0981984 0.0348507 -2.38073e-22)
(-0.105877 0.0353107 0)
(-0.113345 0.0354977 4.74761e-22)
(-0.120561 0.0354111 2.51792e-22)
(-0.127494 0.0350584 -5.00903e-22)
(-0.134121 0.0344535 -2.60694e-22)
(-0.140426 0.0336172 0)
(-0.1464 0.032574 5.32493e-22)
(-0.152035 0.0313512 5.39691e-22)
(-0.15733 0.0299763 0)
(-0.162284 0.0284767 5.47388e-22)
(-0.166897 0.0268785 0)
(-0.171171 0.0252056 5.44623e-22)
(-0.175109 0.0234797 2.67738e-22)
(-0.178711 0.0217198 0)
(-0.18198 0.0199421 0)
(-0.184917 0.0181606 0)
(-0.187525 0.0163866 0)
(-0.189803 0.0146295 0)
(-0.191755 0.0128967 0)
(-0.193382 0.0111944 4.05254e-22)
(-0.194686 0.00952722 -5.52675e-22)
(-0.195669 0.00789899 0)
(-0.196334 0.00631298 0)
(-0.196686 0.00477205 0)
(-0.196729 0.00327904 -1.77375e-23)
(-0.196469 0.00183693 1.35203e-22)
(-0.195912 0.000449351 1.80716e-22)
(-0.195062 -0.000879897 -6.47699e-23)
(-0.19392 -0.00214907 1.60285e-23)
(-0.192488 -0.00336202 -1.06825e-22)
(-0.190763 -0.00452189 2.9802e-23)
(-0.18875 -0.00562836 -2.13855e-22)
(-0.186453 -0.00668161 0)
(-0.183878 -0.0076821 -3.59393e-22)
(-0.181032 -0.00863023 3.81134e-23)
(-0.177923 -0.00952643 0)
(-0.174559 -0.010371 0)
(-0.170948 -0.0111644 6.80112e-22)
(-0.167101 -0.0119069 0)
(-0.163027 -0.0125991 0)
(-0.158735 -0.0132413 -8.93974e-22)
(-0.154236 -0.0138344 -2.07117e-21)
(-0.14954 -0.0143788 1.18251e-21)
(-0.144658 -0.0148756 0)
(-0.139599 -0.0153256 -1.37822e-21)
(-0.134375 -0.0157299 0)
(-0.128996 -0.0160895 -1.4611e-21)
(-0.123473 -0.0164058 -1.68309e-21)
(-0.117816 -0.0166802 3.45055e-21)
(-0.112036 -0.016914 1.76623e-21)
(-0.106143 -0.0171087 0)
(-0.100148 -0.0172651 -4.08424e-21)
(-0.0940608 -0.0173843 0)
(-0.0878912 -0.0174685 -6.8459e-21)
(-0.0816491 -0.0175191 -4.73947e-21)
(-0.0753443 -0.0175378 -4.96214e-21)
(-0.0689862 -0.0175261 5.18681e-21)
(-0.0625839 -0.0174854 -8.19066e-21)
(-0.0561463 -0.0174176 0)
(-0.0496822 -0.017324 0)
(-0.0431999 -0.0172063 6.10439e-21)
(-0.0367075 -0.0170662 9.57969e-21)
(-0.0302128 -0.016905 0)
(-0.0237232 -0.0167245 -3.47833e-21)
(-0.017246 -0.0165261 0)
(-0.0107878 -0.0163112 1.10088e-20)
(-0.00435517 -0.0160814 1.4619e-22)
(0.00204584 -0.0158379 -1.45251e-22)
(0.00840921 -0.0155818 -7.87085e-21)
(0.0147286 -0.0153137 0)
(0.0209986 -0.0150339 8.13222e-21)
(0.0272142 -0.0147428 1.365e-22)
(0.03337 -0.0144427 0)
(0.039459 -0.0141343 0)
(0.0454766 -0.0138177 0)
(0.0514198 -0.0134947 -8.84613e-21)
(0.0572851 -0.0131666 0)
(0.063069 -0.0128346 0)
(0.0687681 -0.0124998 0)
(0.0743794 -0.012163 0)
(0.0799001 -0.011825 0)
(0.0853277 -0.0114866 -9.31612e-21)
(0.0906599 -0.0111484 0)
(0.0958947 -0.0108111 -9.58976e-21)
(0.10103 -0.0104751 -9.66935e-21)
(0.106065 -0.0101412 9.74629e-21)
(0.110998 -0.00980979 0)
(0.115827 -0.00948136 9.89263e-21)
(0.120551 -0.00915638 0)
(0.12517 -0.00883529 1.00296e-20)
(0.129683 -0.00851846 -1.00948e-20)
(0.134089 -0.00820624 -3.03194e-20)
(0.138389 -0.00789893 0)
(0.142581 -0.00759685 -3.06919e-20)
(0.146667 -0.00730025 -1.01973e-20)
(0.150647 -0.00700938 0)
(0.15452 -0.00672444 -2.07642e-20)
(0.158287 -0.00644562 -2.08747e-20)
(0.16195 -0.00617309 3.15334e-20)
(0.165508 -0.00590701 0)
(0.168962 -0.00564752 1.06503e-20)
(0.172314 -0.00539473 1.06981e-20)
(0.175564 -0.00514871 3.21323e-20)
(0.178714 -0.00490952 0)
(0.181766 -0.00467722 0)
(0.184719 -0.00445185 0)
(0.187576 -0.00423342 1.08356e-20)
(0.190338 -0.00402191 0)
(0.193007 -0.00381731 0)
(0.195583 -0.00361955 -1.10478e-20)
(0.198069 -0.0034286 -1.10883e-20)
(0.200467 -0.0032444 0)
(0.202778 -0.00306689 0)
(0.205004 -0.00289595 -2.2415e-20)
(0.207146 -0.00273153 0)
(0.209208 -0.00257351 2.25706e-20)
(0.211189 -0.0024218 2.25915e-20)
(0.213094 -0.00227623 0)
(0.214922 -0.00213669 0)
(0.216677 -0.00200303 -2.28253e-20)
(0.218359 -0.00187509 -4.65131e-23)
(0.219971 -0.00175266 -4.43824e-23)
(0.221515 -0.00163553 0)
(0.222992 -0.00152348 -4.63031e-20)
(0.224405 -0.00141625 0)
(0.225756 -0.00131355 0)
(0.227047 -0.00121527 0)
(0.22828 -0.00112138 2.34689e-20)
(0.229458 -0.00103193 0)
(0.230582 -0.000947118 -4.71776e-20)
(0.231652 -0.00086688 -2.36944e-20)
(0.23267 -0.000790989 0)
(0.233638 -0.0007191 -2.38444e-20)
(0.234557 -0.000650892 0)
(0.235429 -0.000586221 0)
(0.236255 -0.00052495 -7.21413e-20)
(0.237036 -0.000466831 4.82256e-20)
(0.237774 -0.000411611 0)
(0.238469 -0.000359071 4.85067e-20)
(0.239123 -0.000308951 -2.43411e-20)
(0.239736 -0.000260933 0)
(0.24031 -0.00021466 0)
(0.240845 -0.000169708 0)
(0.241342 -0.000125584 -7.38073e-20)
(0.241799 -8.17354e-05 0)
(0.242218 -3.7466e-05 -2.47491e-20)
(0.242597 8.11002e-06 0)
(0.242933 5.61513e-05 0)
(0.243226 0.000108153 0)
(0.24347 0.000166069 0)
(0.243661 0.000232492 0)
(0.24379 0.000310972 0)
(0.243847 0.000406449 -5.05e-20)
(0.243818 0.000525965 0)
(0.243682 0.000679743 -2.54421e-20)
(0.24341 0.000883315 7.66231e-20)
(0.242965 0.00116084 0)
(0.242277 0.00155213 0)
(0.241318 0.0021329 -5.19129e-20)
(0.239784 0.0030082 -5.2381e-20)
(0.238282 0.00444927 5.2803e-20)
(0.234247 0.00685152 5.40911e-20)
(-0.000221634 -0.00620185 -5.43279e-22)